&FCI NORB=   5,NELEC=   2,MS2= 1,
  ORBSYM=1,1,1,1,1,
  ISYM=0,
 /
 5.5071718491122384E-02   1   1   1   1
-1.0793211096802593E-04   1   1   1   2
 5.7307772207881391E-05   1   1   1   3
 3.4555099411836372E-05   1   1   1   4
-8.3849369380981954E-05   1   1   1   5
 5.0534023017095690E-02   1   1   2   2
-3.4057257117588060E-06   1   1   2   3
-1.0655754982869382E-04   1   1   2   4
-2.6566253863459955E-04   1   1   2   5
 5.0581475961450795E-02   1   1   3   3
-4.1717762121585834E-04   1   1   3   4
 3.9004302874397282E-05   1   1   3   5
 5.0441831649489337E-02   1   1   4   4
 2.6950535516981885E-07   1   1   4   5
 5.0625906183248720E-02   1   1   5   5
 1.6041522745949572E-03   1   2   1   2
-7.2435862425643385E-06   1   2   1   3
-1.0923991911359280E-04   1   2   1   4
-2.8244345599788784E-04   1   2   1   5
 9.8077783931350650E-05   1   2   2   2
 4.6313459201060391E-05   1   2   2   3
-3.4774427119896008E-04   1   2   2   4
 3.2062698077200307E-04   1   2   2   5
 1.0845670271076422E-04   1   2   3   3
-2.4651641549322680E-04   1   2   3   4
-3.5214408520423005E-04   1   2   3   5
-3.3140285556060425E-04   1   2   4   4
-2.5759586935525131E-04   1   2   4   5
 3.1447650557700393E-04   1   2   5   5
 1.6501806390566707E-03   1   3   1   3
-4.3078946797744201E-04   1   3   1   4
 4.3324655126013870E-05   1   3   1   5
-1.2004676822291113E-05   1   3   2   2
 1.9453378937065691E-05   1   3   2   3
-2.3997039159659258E-04   1   3   2   4
-3.4931265594711017E-04   1   3   2   5
-1.4599760572865721E-04   1   3   3   3
 2.7598930483909876E-04   1   3   3   4
-2.3337027154019706E-04   1   3   3   5
 2.8173194025570220E-04   1   3   4   4
-3.1344368549421749E-04   1   3   4   5
-2.3538671384441034E-04   1   3   5   5
 1.5115808615351538E-03   1   4   1   4
 3.4998144192929928E-07   1   4   1   5
-3.3542722433103190E-04   1   4   2   2
-2.3295251166155435E-04   1   4   2   3
-3.4328608756910935E-04   1   4   2   4
-2.4949114045404815E-04   1   4   2   5
 2.6293154056181037E-04   1   4   3   3
 2.9126790224152601E-04   1   4   3   4
-2.9709428044143995E-04   1   4   3   5
 1.1649926439865317E-05   1   4   4   4
 4.4277424708022755E-05   1   4   4   5
 3.4104871837582404E-05   1   4   5   5
 1.7028956758761357E-03   1   5   1   5
 3.1278243434386567E-04   1   5   2   2
-3.3812278566026124E-04   1   5   2   3
-2.8609848835735806E-04   1   5   2   4
 3.2663274575043752E-04   1   5   2   5
-2.2298117953382463E-04   1   5   3   3
-3.5442098784273549E-04   1   5   3   4
-2.4585418379733905E-04   1   5   3   5
 5.1241086554871661E-05   1   5   4   4
 3.5041448035904281E-05   1   5   4   5
-6.5711054543382216E-05   1   5   5   5
 5.5018725886189834E-02   2   2   2   2
-8.9729412948466757E-06   2   2   2   3
 6.9421371195281338E-05   2   2   2   4
-1.0431696198463889E-04   2   2   2   5
 5.1908173339054245E-02   2   2   3   3
 4.2962064491284613E-05   2   2   3   4
 4.4516114786876163E-05   2   2   3   5
 5.0536621795150893E-02   2   2   4   4
 7.4046530546690973E-05   2   2   4   5
 5.0542621407846204E-02   2   2   5   5
 1.5587236268653167E-03   2   3   2   3
 3.8669022927701938E-05   2   3   2   4
 5.5157320101147798E-05   2   3   2   5
 1.5886522050641841E-05   2   3   3   3
-4.0763755203248572E-05   2   3   3   4
-3.5502660309731101E-05   2   3   3   5
-1.0344191147120457E-05   2   3   4   4
 6.3583058349287673E-05   2   3   4   5
 1.0744909947147136E-05   2   3   5   5
 1.6115837858886109E-03   2   4   2   4
 7.5779633290363612E-05   2   4   2   5
-2.8733049499002794E-05   2   4   3   3
-1.1808168840582736E-05   2   4   3   4
 5.2913333627216093E-04   2   4   3   5
 7.4734425021380144E-06   2   4   4   4
 1.3447401412361292E-05   2   4   4   5
-9.0941349574085549E-06   2   4   5   5
 1.6140608803149117E-03   2   5   2   5
-3.6612057112670612E-05   2   5   3   3
-4.0091972501862181E-04   2   5   3   4
 1.2408038744303888E-05   2   5   3   5
 1.2649009427866101E-05   2   5   4   4
 1.8386403414882503E-06   2   5   4   5
 3.5494003110852351E-05   2   5   5   5
 5.5013018220482636E-02   3   3   3   3
 8.2990196674667671E-05   3   3   3   4
-3.4001974373737485E-05   3   3   3   5
 5.0608341469897393E-02   3   3   4   4
-6.7997670685270213E-05   3   3   4   5
 5.0479657812625353E-02   3   3   5   5
 1.6822010306397840E-03   3   4   3   4
-6.9461416163675506E-05   3   4   3   5
-3.6178064234722723E-05   3   4   4   4
-3.4092288215249967E-06   3   4   4   5
-1.0969341374751000E-05   3   4   5   5
 1.5524193540580522E-03   3   5   3   5
 8.4478012785756212E-06   3   5   4   4
-8.7960249279880915E-06   3   5   4   5
 2.1566407897000508E-05   3   5   5   5
 5.5033065521753785E-02   4   4   4   4
-1.5868965972750022E-07   4   4   4   5
 5.1917380885892019E-02   4   4   5   5
 1.5599592389111923E-03   4   5   4   5
 2.2290774145486351E-07   4   5   5   5
 5.5034276185631031E-02   5   5   5   5
-9.3781218562947147E-02   1   1   0   0
-4.7568441802348689E-05   1   2   0   0
-3.5117735890581798E-05   1   3   0   0
-1.0058374617945236E-04   1   4   0   0
 2.1937710106234194E-04   1   5   0   0
-7.0772850390946745E-02   2   2   0   0
-6.1832969598984793E-04   2   3   0   0
-1.3832166256694870E-03   2   4   0   0
 1.2261737957828367E-03   2   5   0   0
-9.6422801829841476E-02   3   3   0   0
 1.0707774181655837E-03   3   4   0   0
 9.1516581483672903E-04   3   5   0   0
-9.3001715942176780E-02   4   4   0   0
 8.5518307052321815E-03   4   5   0   0
-7.3982859103698312E-02   5   5   0   0
-1.9890145251684430E+02   0   0   0   0
