&FCI NORB=   5,NELEC=   2,MS2= 1,
  ORBSYM=1,1,1,1,1,
  ISYM=0,
 /
 7.9461823824699684E-02   1   1   1   1
-5.0410073980595277E-05   1   1   1   2
 2.2261112174441246E-04   1   1   1   3
 7.2875494007861258E-04   1   1   1   4
-4.6847599030395282E-04   1   1   1   5
 7.5822078670683232E-02   1   1   2   2
-2.3441971148334081E-05   1   1   2   3
-8.0657534720490840E-04   1   1   2   4
 8.9302709434717006E-04   1   1   2   5
 7.4728623517897913E-02   1   1   3   3
 8.8477903514726296E-04   1   1   3   4
 5.6444024092946619E-04   1   1   3   5
 6.9976667042542878E-02   1   1   4   4
 5.6970471208587527E-04   1   1   4   5
 7.0668563397295853E-02   1   1   5   5
 1.5518274521059236E-03   1   2   1   2
 4.6283359559462923E-05   1   2   1   3
-5.3967114716748762E-05   1   2   1   4
 1.0490819423191905E-04   1   2   1   5
-2.6262971059247945E-05   1   2   2   2
-1.4371935932443159E-04   1   2   2   3
-1.4951709712822497E-05   1   2   2   4
-2.2969068386892764E-04   1   2   2   5
 4.6869967975755894E-05   1   2   3   3
-1.1835844775251485E-04   1   2   3   4
-1.5754005695209937E-05   1   2   3   5
 1.3417146587697820E-04   1   2   4   4
 2.0988325171274181E-05   1   2   4   5
 1.1381816961465822E-05   1   2   5   5
 1.5284888586456736E-03   1   3   1   3
 3.3285514952781364E-04   1   3   1   4
-3.2425582444070014E-04   1   3   1   5
 4.6286431258029428E-04   1   3   2   2
-1.1199513029837355E-04   1   3   2   3
-2.5300872207869413E-04   1   3   2   4
 1.6039231469239625E-04   1   3   2   5
-1.1435445601583274E-04   1   3   3   3
 3.9733588909166332E-04   1   3   3   4
 3.4156115688458036E-05   1   3   3   5
-9.0354173030299381E-05   1   3   4   4
-7.6880993373164484E-05   1   3   4   5
 3.4572651255228924E-05   1   3   5   5
 1.4750600099262736E-03   1   4   1   4
-1.3229357901654336E-04   1   4   1   5
 9.7405560860902628E-04   1   4   2   2
-9.5205792685437723E-05   1   4   2   3
-8.6920710278411974E-05   1   4   2   4
 3.7094024729394790E-04   1   4   2   5
 1.6571201719847486E-04   1   4   3   3
 6.5479079106432465E-04   1   4   3   4
 7.6129772054794420E-05   1   4   3   5
-1.4458550552141019E-04   1   4   4   4
 1.3449812358164937E-04   1   4   4   5
 2.8659033560456620E-04   1   4   5   5
 1.5070118365816173E-03   1   5   1   5
-6.9578817159686912E-04   1   5   2   2
 1.7978878454683256E-04   1   5   2   3
 4.2261805303889206E-04   1   5   2   4
-2.6309389923560053E-04   1   5   2   5
 3.3472893352341234E-07   1   5   3   3
-3.6237399478306791E-04   1   5   3   4
-4.0055796000339964E-05   1   5   3   5
 1.4463188392278210E-04   1   5   4   4
-3.0978994065344865E-06   1   5   4   5
-1.3870942721949393E-04   1   5   5   5
 7.8804656668717971E-02   2   2   2   2
-1.5438281878122143E-04   2   2   2   3
-8.0385276856926962E-04   2   2   2   4
 9.7502249003795453E-04   2   2   2   5
 7.4856951744089989E-02   2   2   3   3
 1.0443935843471109E-03   2   2   3   4
 4.4438106164353938E-04   2   2   3   5
 7.0073354484437994E-02   2   2   4   4
 3.8020721091315979E-04   2   2   4   5
 7.0882878589017942E-02   2   2   5   5
 1.4545495739856948E-03   2   3   2   3
 5.4699048747483446E-05   2   3   2   4
 1.0512006459264422E-04   2   3   2   5
 5.7227909976510118E-05   2   3   3   3
-3.2507769960673770E-05   2   3   3   4
 7.0013809692623844E-05   2   3   3   5
 1.1685303242472745E-04   2   3   4   4
 5.8928194687454487E-05   2   3   4   5
 1.1121819332831183E-04   2   3   5   5
 1.3954477076065833E-03   2   4   2   4
-5.1235740626524992E-04   2   4   2   5
-3.6318335998724915E-04   2   4   3   3
-2.6787150369734402E-04   2   4   3   4
-5.2919418863258042E-05   2   4   3   5
-1.1829383493853368E-04   2   4   4   4
-4.9663792828161726E-05   2   4   4   5
-2.1421739968110204E-04   2   4   5   5
 1.8609461109713697E-03   2   5   2   5
 1.8301963387974657E-04   2   5   3   3
 3.4143092897731704E-04   2   5   3   4
 3.1323769906342592E-04   2   5   3   5
-1.0249119454413993E-04   2   5   4   4
 2.1016252373399065E-04   2   5   4   5
 3.8940070483526646E-04   2   5   5   5
 7.7473319885152173E-02   3   3   3   3
 1.2987526462062272E-04   3   3   3   4
 2.5694942979271045E-04   3   3   3   5
 7.0229312236333385E-02   3   3   4   4
 4.3006855651068565E-04   3   3   4   5
 7.0101034566754525E-02   3   3   5   5
 1.7540352386979825E-03   3   4   3   4
 3.1299265746487649E-04   3   4   3   5
 2.8395084356546123E-05   3   4   4   4
 1.3419899693109592E-04   3   4   4   5
 5.9168902408068954E-04   3   4   5   5
 1.2794072790618446E-03   3   5   3   5
-5.2302853321642264E-05   3   5   4   4
 1.5235435174487259E-04   3   5   4   5
 1.6981134149131083E-04   3   5   5   5
 6.9913798528568660E-02   4   4   4   4
 5.9201055389703817E-04   4   4   4   5
 6.7227341342487437E-02   4   4   5   5
 1.2623692506525165E-03   4   5   4   5
 5.7603955431966523E-04   4   5   5   5
 7.0351725318375191E-02   5   5   5   5
-1.3324391627016113E-01   1   1   0   0
-1.0711135725949960E-03   1   2   0   0
-3.0498264975569291E-03   1   3   0   0
 8.1314776887648967E-04   1   4   0   0
 3.4241180506249295E-03   1   5   0   0
-1.3231813564952816E-01   2   2   0   0
 1.1418709709062000E-03   2   3   0   0
 1.3344976870621208E-03   2   4   0   0
-1.0097446340669629E-03   2   5   0   0
-1.3407868441938300E-01   3   3   0   0
 3.5349967772686807E-05   3   4   0   0
 2.3375088887058492E-03   3   5   0   0
-1.2849271948635571E-01   4   4   0   0
-4.8860710403464966E-05   4   5   0   0
-1.2476340038405355E-01   5   5   0   0
-2.4127514813464148E+02   0   0   0   0
