110
Lattice="11.45512985522207 0.0 0.0 5.727564927611035 9.92043345827187 0.0 0.0 0.0 31.691342951089922" Properties=species:S:1:pos:R:3:tags:I:1:forces:R:3 energy=-461.7674560546875 free_energy=-461.7674560546875 stress="0.0035599269904196262 1.7005950212478638e-06 -5.462206900119781e-07 1.7005950212478638e-06 0.003632986918091774 4.516914486885071e-07 -5.462206900119781e-07 4.516914486885071e-07 0.003593758214265108" pbc="T T F"
Al       2.29473184       0.72017719      10.03477254        6      -0.00028858      -0.00031403       0.00008155
Al       5.15792306       0.72297939      10.02269484        6      -0.00034727      -0.00025128       0.00035918
Al       8.02462812       0.71907697      10.02462194        6      -0.00006018      -0.00018688       0.00007675
Al      10.88969906       0.72168227      10.02792251        6      -0.00020254      -0.00030800      -0.00006208
Al       3.72532179       3.20225457      10.03204747        6      -0.00027151      -0.00024025      -0.00023276
Al       6.58897906       3.19730703      10.03022979        6      -0.00006890      -0.00020790      -0.00065216
Al       9.45503056       3.20043881      10.02319587        6      -0.00014559      -0.00022400      -0.00036928
Al      12.31955237       3.20351309      10.02739481        6      -0.00028672      -0.00038413       0.00005374
Al       5.15424702       5.67796363      10.03602012        6      -0.00005485      -0.00034381      -0.00069725
Al       8.01402849       5.67875026      10.03230708        6      -0.00003768      -0.00032290      -0.00061709
Al      10.88007123       5.68336094      10.02438090        6      -0.00020060      -0.00027405      -0.00006324
Al      13.74599157       5.68732157      10.02696978        6      -0.00021729      -0.00043134      -0.00015377
Al       6.58590990       8.15902316      10.02840647        6      -0.00010688      -0.00024535       0.00014496
Al       9.44901579       8.16144478      10.02355498        6      -0.00019665      -0.00026238       0.00030328
Al      12.31240634       8.16670295      10.01556857        6      -0.00010237      -0.00034057       0.00036214
Al      15.18260304       8.16069026      10.03332949        6      -0.00011992      -0.00030908      -0.00032014
Al       0.89939316       1.53081690      12.39058142        5      -0.00058040      -0.00141402      -0.00137559
Al       3.76297954       1.53183755      12.39263747        5      -0.00065642      -0.00098413       0.00024286
Al       6.62504480       1.53141067      12.38531803        5      -0.00110636      -0.00034977      -0.00230947
Al       9.48705347       1.53152207      12.37823569        5       0.00185804      -0.00101301       0.00310694
Al       2.33037417       4.01129732      12.38856000        5       0.00071560      -0.00178981      -0.00170415
Al       5.19658074       4.01014274      12.39085950        5      -0.00107208      -0.00107037      -0.00193244
Al       8.05852713       4.00952372      12.38441194        5      -0.00128874       0.00046231      -0.00258234
Al      10.92084970       4.01177723      12.38139205        5      -0.00072391      -0.00193924      -0.00103919
Al       3.76260335       6.49023566      12.38818861        5      -0.00040235       0.00045776      -0.00165250
Al       6.62661208       6.49065041      12.39260475        5       0.00011627      -0.00023056      -0.00159675
Al       9.48630016       6.49069478      12.38462669        5      -0.00028217       0.00061860       0.00092060
Al      12.34947740       6.49286883      12.38040384        5       0.00001778      -0.00007598       0.00092708
Al       5.19725322       8.97022094      12.38767288        5      -0.00121548       0.00032160      -0.00066378
Al       8.05950719       8.96962923      12.39183661        5      -0.00155131       0.00079826       0.00095425
Al      10.91825411       8.97330757      12.38387067        5      -0.00051582      -0.00040716      -0.00126403
Al      13.78157832       8.97237856      12.38084786        5       0.00129534      -0.00052995      -0.00148975
Al       0.90776927      -0.13923078      14.67560771        4      -0.00003577       0.00043537       0.00060336
Al       3.76882528      -0.12932605      14.67719024        4      -0.00057284      -0.00056934      -0.00124465
Al       6.63112282      -0.12775888      14.65771436        4      -0.00007069      -0.00008951       0.00102714
Al       9.50125637      -0.13204035      14.65760566        4      -0.00076915       0.00030576       0.00040453
Al       2.34024061       2.33967052      14.67598895        4       0.00028549       0.00057332      -0.00246783
Al       5.20709514       2.34868231      14.67379098        4      -0.00047312      -0.00003801       0.00002527
Al       8.06678753       2.34984886      14.66186796        4      -0.00062583      -0.00009555      -0.00027004
Al      10.92837163       2.34465934      14.65962461        4      -0.00068654      -0.00005411       0.00033166
Al       3.77800278       4.82315241      14.66515802        4      -0.00076285      -0.00013248      -0.00000350
Al       6.64052110       4.82393922      14.66799822        4      -0.00038894       0.00031869       0.00104039
Al       9.49474153       4.82628852      14.65991027        4      -0.00016210       0.00011768       0.00028765
Al      12.36135637       4.82316863      14.65660615        4      -0.00065449       0.00014571      -0.00095184
Al       5.21058889       7.30816853      14.66929796        4      -0.00107719      -0.00087890      -0.00100286
Al       8.06735104       7.30861776      14.67657589        4      -0.00072007      -0.00033870      -0.00104881
Al      10.92442298       7.31410497      14.65787544        4      -0.00026577      -0.00058812       0.00002499
Al      13.79691636       7.31116563      14.65372106        4      -0.00096580      -0.00049909       0.00026367
Al       2.32378260       0.68022619      16.97933313        3       0.00159368      -0.00111534      -0.00075261
Al       5.19334336       0.69376758      16.96341894        3      -0.00080869       0.00041260       0.00129917
Al       8.05433123       0.70273865      16.94050988        3      -0.00078793      -0.00001520       0.00120568
Al      10.92065369       0.69046862      16.95550153        3       0.00003421      -0.00032108       0.00126981
Al       3.77744042       3.16110138      16.96642321        3      -0.00044502      -0.00074310       0.00076325
Al       6.63080569       3.17523571      16.97504407        3      -0.00053453      -0.00040548      -0.00048106
Al       9.47893632       3.17004073      16.95179083        3       0.00014876       0.00048471       0.00209819
Al      12.35287179       3.15200952      16.94265848        3      -0.00033267       0.00083179       0.00210555
Al       5.20790410       5.63875744      16.95691640        3      -0.00000596       0.00000745       0.00273025
Al       8.05454535       5.64284108      16.96769382        3      -0.00059307      -0.00008113       0.00256999
Al      10.91133297       5.64842061      16.93311534        3      -0.00011209      -0.00009406       0.00118186
Al      13.78936099       5.64222230      16.92766127        3       0.00078149      -0.00022862       0.00171166
Al       6.62679445       8.12165599      16.97739888        3       0.00017671      -0.00011783       0.00291540
Al       9.47680594       8.13117893      16.96729321        3      -0.00015886       0.00000753       0.00148466
Al      12.34769503       8.13410413      16.93405202        3      -0.00026693      -0.00000130       0.00064728
Al      15.22542603       8.13574369      16.93914652        3       0.00009249      -0.00075644       0.00050528
Al       0.88141408       1.52689340      19.23359524        2      -0.00008351      -0.00029030      -0.00226607
Al       3.75245647       1.52054126      19.23461021        2       0.00124134       0.00048698      -0.00153570
Al       6.61993713       1.54444854      19.22770717        2      -0.00069403      -0.00314208       0.00114119
Al       9.46750158       1.54500090      19.20025380        2       0.00161511      -0.00102568      -0.00045251
Al       2.32104019       4.00578162      19.16996135        2       0.00006026      -0.00072656       0.00011161
Al       5.20546345       4.01008268      19.26043825        2      -0.00021398      -0.00026730      -0.00167864
Al       8.04418941       4.01053718      19.27711502        2       0.00048005       0.00109354       0.00117903
Al      10.92014044       4.01746389      19.17593293        2      -0.00005482      -0.00037664       0.00201791
Al       3.75980116       6.49493278      19.16323647        2       0.00095183      -0.00252821       0.00160402
Al       6.62109015       6.46474439      19.26326670        2      -0.00132474      -0.00082039      -0.00038508
Al       9.47531201       6.47833142      19.20691260        2       0.00129325       0.00012003       0.00082378
Al      12.34633532       6.48321410      19.16037380        2       0.00077165       0.00033758       0.00207125
Al       5.18763679       8.98859725      19.21662869        2       0.00036915      -0.00119871      -0.00134730
Al       8.03678230       8.97431467      19.28321733        2       0.00230295       0.00113558       0.00191917
Al      10.91343513       8.97052955      19.19500094        2       0.00081767       0.00083284      -0.00320400
Al      13.77635035       8.98537659      19.15440911        2      -0.00034597      -0.00124689      -0.00068709
Al       0.78086903      -0.09123446      21.80035582        1       0.00097318      -0.00215799      -0.00073804
Al       3.68150287      -0.08602490      21.64411341        1       0.00108684      -0.00027066      -0.00025266
Al       6.57343400      -0.10049907      21.53351455        1      -0.00072268      -0.00025135      -0.00265538
Al       9.40975045      -0.07542344      21.51856396        1       0.00073405       0.00068691       0.00039244
Al       2.25090229       2.39106193      21.54953874        1       0.00097728       0.00145010      -0.00211224
Al       5.12820351       2.38516217      21.60324007        1       0.00244821      -0.00109090       0.00118537
Al       7.98725541       2.42416018      21.63297899        1       0.00216365      -0.00246878      -0.00310184
Al      10.86768779       2.42147951      21.52587226        1       0.00188688      -0.00281743      -0.00158613
Al       3.70155699       4.87159399      21.45340717        1      -0.00038499      -0.00070252       0.00028776
Al       6.51749063       4.89006535      21.83116143        1       0.00399605      -0.00308186      -0.00171679
Al       9.48394398       4.87226070      21.54994983        1       0.00081450      -0.00025720       0.00246136
Al      12.34521711       4.87639123      21.51957824        1      -0.00189802       0.00050420       0.00077362
Al       5.15066554       7.36161252      21.51790137        1      -0.00178448      -0.00281284       0.00270675
Al       8.04218893       7.33461684      21.57504501        1       0.00097780       0.00154274       0.00105145
Al      10.95015142       7.32151785      21.48885681        1       0.00000462       0.00005519       0.00097118
Al      13.76649668       7.34677497      21.42351599        1      -0.00015979      -0.00347974      -0.00394123
C        2.39009077       6.46180167      24.68190131        0       0.00355695       0.00125896       0.00194733
C        2.37821187       5.07726531      24.76192722        0      -0.00039248       0.00591707       0.00146152
C        1.13892032       4.44931167      25.03018262        0      -0.00697107       0.00144533       0.00406628
N        0.82872134       3.13786708      25.18542154        0       0.00355382       0.00304244      -0.00098598
N       -0.49238235       3.16093284      25.41755432        0       0.00240211       0.00719381      -0.00108704
N       -1.09877295       4.35900487      25.39028978        0      -0.00050636       0.00403540      -0.00468857
C       -0.07633821       5.22157565      25.16414223        0       0.00539509      -0.00432462      -0.00178043
C       -0.04131474       6.62727392      25.01968261        0      -0.00404733       0.00547372       0.00140454
C        1.18866529       7.22810879      24.80391058        0       0.00277379       0.00524551       0.00041150
H        3.33242016       6.98323011      24.49118446        0      -0.00243576      -0.00208979      -0.00004850
H        3.27736681       4.47835981      24.60333024        0      -0.00115254      -0.00256056       0.00353068
H       -1.03060591       2.29379310      25.43631265        0      -0.00129768       0.00749405      -0.00068106
H       -0.96489436       7.20635358      25.05654832        0      -0.00007166       0.00251681      -0.00133677
H        1.25185830       8.31172025      24.68123681        0      -0.00183989       0.00343074      -0.00027986
