110
Lattice="11.45512985522207 0.0 0.0 5.727564927611035 9.92043345827187 0.0 0.0 0.0 31.691342951089922" Properties=species:S:1:pos:R:3:tags:I:1:forces:R:3 energy=-461.8204650878906 free_energy=-461.8204650878906 stress="0.0038002287037670612 1.189298927783966e-06 -4.7171488404273987e-07 1.189298927783966e-06 0.003878448624163866 1.0598450899124146e-06 -4.7171488404273987e-07 1.0598450899124146e-06 0.003935325890779495" pbc="T T F"
Al       2.35957019       0.79148139      10.02677678        6      -0.00038812      -0.00134300      -0.00272659
Al       5.22255366       0.79284031      10.02585373        6       0.00075317      -0.00169690      -0.00484344
Al       8.09453643       0.78779905      10.02004209        6      -0.00029510      -0.00094970      -0.00194021
Al      10.95734322       0.79024077      10.03276753        6      -0.00053032      -0.00159782      -0.00312079
Al       3.79241531       3.26745100      10.03009760        6       0.00011284      -0.00028411      -0.00295909
Al       6.65750394       3.26160613      10.01863703        6       0.00008031      -0.00031407      -0.00129435
Al       9.52577273       3.26586184      10.02293879        6      -0.00041893      -0.00072559      -0.00269814
Al      12.38732577       3.27290054      10.03607024        6      -0.00059006      -0.00108877      -0.00373734
Al       5.22204181       5.73971234      10.01518279        6       0.00013415       0.00017030      -0.00043887
Al       8.08821738       5.73964623      10.02426239        6      -0.00056367       0.00008467      -0.00195543
Al      10.94886325       5.74806107      10.02485074        6      -0.00018211      -0.00025411      -0.00313208
Al      13.81428820       5.75155116      10.02588004        6       0.00029726      -0.00061495      -0.00379894
Al       6.65581184       8.22711723      10.01715687        6      -0.00043078      -0.00114009      -0.00130974
Al       9.51370825       8.23448613      10.03460805        6       0.00007729      -0.00222055      -0.00524193
Al      12.38086875       8.23267912      10.02361305        6       0.00034862      -0.00101618      -0.00460897
Al      15.25215282       8.22473247      10.02199459        6      -0.00017530      -0.00047092      -0.00117640
Al       0.94937074       1.57810390      12.38436665        5      -0.00086794      -0.00082963      -0.00044154
Al       3.82346699       1.57342349      12.36796307        5      -0.00289378       0.00216413       0.00867208
Al       6.68070960       1.58238761      12.37907597        5      -0.00228390       0.00018879      -0.00330517
Al       9.53459399       1.58560909      12.37753886        5       0.00158142      -0.00378677       0.00088490
Al       2.39063963       4.06677029      12.37408748        5      -0.00231618      -0.00391742       0.00293399
Al       5.24886815       4.07169745      12.38030985        5      -0.00108061      -0.00712487      -0.00199214
Al       8.10268175       4.06774550      12.37503534        5      -0.00129470      -0.00463913      -0.00277180
Al      10.96861974       4.06615129      12.37704660        5       0.00094918      -0.00697390      -0.00348692
Al       3.81981009       6.54589085      12.38420064        5      -0.00257390      -0.00095928      -0.00303716
Al       6.67352431       6.54517124      12.38563153        5      -0.00217498      -0.00042139      -0.00169096
Al       9.53074298       6.53764823      12.38068446        5       0.00161742       0.00261873      -0.00056509
Al      12.40790330       6.53885468      12.35547454        5      -0.00050390       0.00097623       0.00976767
Al       5.24219407       9.01893190      12.38431568        5       0.00008079       0.00019620      -0.00163396
Al       8.10423753       9.01164762      12.38066904        5      -0.00142416       0.00390408       0.00380633
Al      10.97838742       9.01332268      12.36784153        5      -0.00314108       0.00349182       0.00533610
Al      13.83493717       9.02106969      12.37699277        5       0.00396124       0.00002489      -0.00394121
Al       0.93677076      -0.10586722      14.66688217        4       0.00319097       0.00172672       0.00062930
Al       3.81303654      -0.10659461      14.64525422        4      -0.00220136       0.00522140       0.00204744
Al       6.67719602      -0.09390723      14.65311326        4      -0.00217699       0.00201478      -0.00361749
Al       9.53489711      -0.09399924      14.65667384        4      -0.00013136      -0.00010211       0.00150370
Al       2.38419619       2.37751960      14.63975491        4       0.00005340      -0.00001014       0.00349681
Al       5.24882547       2.39397194      14.65531696        4      -0.00099457      -0.00085017       0.00018189
Al       8.10082994       2.40395978      14.65832160        4      -0.00049197      -0.00464249      -0.00275836
Al      10.95939796       2.38019427      14.65511037        4       0.00094318      -0.00006745       0.00010106
Al       3.81059981       4.86757628      14.66308009        4       0.00196275      -0.00154758      -0.00304242
Al       6.66888519       4.87228499      14.66384916        4       0.00064700      -0.00005150       0.00142861
Al       9.52554440       4.86015200      14.64693913        4       0.00166579       0.00214748       0.00243371
Al      12.40271734       4.86727814      14.63464615        4      -0.00188323      -0.00219838       0.00127074
Al       5.23956224       7.34467745      14.67883608        4       0.00033945       0.00013714       0.00043477
Al       8.09673443       7.34583846      14.67868548        4       0.00098872       0.00007695      -0.00421371
Al      10.97030676       7.34715468      14.63935882        4      -0.00136826      -0.00060384       0.00090498
Al      13.82466087       7.34581652      14.65334847        4       0.00171859       0.00089153      -0.00038979
Al       2.35652266       0.72301527      16.95807822        3       0.00419296      -0.00388776       0.00302423
Al       5.22189606       0.73145073      16.93430771        3       0.00080146       0.00023842       0.00578159
Al       8.08138284       0.73737316      16.93659422        3       0.00031713      -0.00070293       0.00167309
Al      10.95027634       0.69618246      16.95928360        3      -0.00029775       0.00266188      -0.00097687
Al       3.80057628       3.17912058      16.94431823        3       0.00305324       0.00397928       0.00613436
Al       6.66409587       3.20867135      16.97479089        3      -0.00106135      -0.00102554       0.00078292
Al       9.50979930       3.19736079      16.95378194        3       0.00347110       0.00384829       0.00025538
Al      12.37404924       3.17874661      16.92188754        3       0.00185047       0.00138555       0.00404830
Al       5.24682327       5.66416646      16.97022209        3      -0.00148375      -0.00112865       0.00149334
Al       8.08556809       5.67482191      16.96932303        3      -0.00007721       0.00000619       0.00199532
Al      10.93979987       5.67955044      16.91980409        3       0.00318911      -0.00256436       0.00341415
Al      13.81829359       5.67016835      16.91566375        3       0.00205871      -0.00028217       0.00326182
Al       6.65707083       8.15085195      16.99454973        3       0.00109958      -0.00054880       0.00091234
Al       9.51803968       8.16836514      16.94832776        3      -0.00042091       0.00012991       0.00241165
Al      12.36804296       8.16612987      16.93477171        3       0.00425236       0.00031657      -0.00356899
Al      15.25429295       8.15914482      16.95555492        3       0.00113196      -0.00386998      -0.00585631
Al       0.89679566       1.53993573      19.22185336        2       0.00298080       0.00062024      -0.00590080
Al       3.79931341       1.55363181      19.26315248        2       0.00002001       0.00028776      -0.00612892
Al       6.64254475       1.56988022      19.24735220        2       0.00349312       0.00099483      -0.00000317
Al       9.50561476       1.56616542      19.19299798        2       0.00240569       0.00254800      -0.00043939
Al       2.35116041       4.02631995      19.16357227        2       0.00627153      -0.00267482       0.01115742
Al       5.24772335       3.99295411      19.28948947        2       0.00384744       0.00533066      -0.00328885
Al       8.08974661       4.04817331      19.27859297        2       0.00000980      -0.00144984      -0.00519226
Al      10.96456301       4.04331485      19.20424832        2      -0.00275851      -0.00193436      -0.00867504
Al       3.80419553       6.48917682      19.18451277        2       0.00096487       0.00489373      -0.00608783
Al       6.64347927       6.48528992      19.28989186        2       0.00244094      -0.00382564      -0.01160016
Al       9.52972025       6.51865902      19.19410422        2      -0.00227041      -0.00388709      -0.00597725
Al      12.40047971       6.51157969      19.15261556        2      -0.00678411       0.00112399       0.00651925
Al       5.22377759       8.98760496      19.26599093        2      -0.00044178       0.00554106      -0.01095352
Al       8.10226069       9.01313702      19.25698011        2      -0.00701471      -0.00021312      -0.00110864
Al      10.95146607       9.02798695      19.19660319        2       0.00066924      -0.00720320      -0.00095863
Al      13.80293797       9.01187464      19.15157245        2       0.00240692       0.00119956       0.00207893
Al       0.81573467      -0.09053491      21.80474698        1      -0.00205491       0.00204805       0.00402249
Al       3.73566688      -0.08521380      21.66239390        1       0.00009093      -0.00012141      -0.00200574
Al       6.58733180      -0.05374466      21.52984402        1       0.00878562      -0.00059073      -0.00048100
Al       9.41429290      -0.01212719      21.50938421        1       0.01305423      -0.00502878       0.01244494
Al       2.29523416       2.41393418      21.48556458        1       0.00000734      -0.00304396       0.00799912
Al       5.12229096       2.38852497      21.84415353        1       0.00450218      -0.00281359      -0.00600740
Al       8.04067131       2.47812848      21.60886644        1       0.00032592      -0.00490159       0.00033609
Al      10.92987089       2.45225580      21.57208928        1      -0.00310776      -0.00428277      -0.00421243
Al       3.79843097       4.87013615      21.44866971        1      -0.00452779       0.00290094       0.00912024
Al       6.59397756       4.92317190      21.96891832        1      -0.00550190      -0.00187544      -0.00188513
Al       9.59901196       4.94469899      21.56433318        1      -0.00887018      -0.01201502       0.00307258
Al      12.41601447       4.90965635      21.49127198        1      -0.00109746      -0.00175914       0.00250090
Al       5.19281691       7.39520017      21.58459195        1      -0.00450580      -0.00489518       0.00068268
Al       8.06845992       7.39642888      21.53784416        1       0.00478518      -0.00972992       0.00673554
Al      10.97150507       7.35074339      21.46770381        1       0.00656678       0.00270847       0.00117130
Al      13.83288070       7.37227097      21.38468192        1      -0.00400596       0.00374101       0.01041670
C        2.06334707       6.16996650      24.56715353        0       0.02805206      -0.00670783       0.01193430
C        2.04944767       4.78781362      24.68571140        0      -0.00532384      -0.00252605       0.00385895
C        0.82136311       4.17516588      25.03521348        0       0.00775379       0.00288950      -0.00260306
N        0.52072293       2.87933083      25.28865068        0       0.01263619      -0.01791505      -0.00051040
N       -0.78832279       2.91849405      25.57729119        0       0.01835512       0.00354484      -0.00459190
N       -1.39670804       4.11064525      25.50592081        0      -0.01141382       0.00585893      -0.00443842
C       -0.38598133       4.95411117      25.17878526        0      -0.00649263       0.02891117      -0.00381867
C       -0.35081405       6.35312857      24.98190363        0      -0.04099998       0.02047546       0.00210365
C        0.87159315       6.94569718      24.71552082        0       0.01077539       0.00591122       0.00129673
H        3.01039826       6.67293164      24.34756115        0      -0.01661401       0.01205918       0.00107148
H        2.93817009       4.17975714      24.50517775        0       0.00197509       0.00442102       0.01324881
H       -1.30671264       2.05817467      25.74994269        0      -0.01891833       0.00452119      -0.00546541
H       -1.26975143       6.94025219      25.01487675        0      -0.00186460      -0.00970682       0.00538175
H        0.93697389       8.02712881      24.57918372        0       0.00118887       0.01442134      -0.00357179
