110
Lattice="11.45512985522207 0.0 0.0 5.727564927611035 9.92043345827187 0.0 0.0 0.0 31.691342951089922" Properties=species:S:1:pos:R:3:tags:I:1:forces:R:3 energy=-461.9818420410156 free_energy=-461.9818420410156 stress="0.005733221769332886 2.4191103875637054e-06 -4.10713255405426e-07 2.4191103875637054e-06 0.005771537311375141 8.721835911273956e-07 -4.10713255405426e-07 8.721835911273956e-07 0.005761212669312954" pbc="T T F"
Al       1.43134383       0.82735751      10.00019593        6      -0.00011036       0.00063317       0.00405947
Al       4.29512940       0.82736178      10.00018466        6      -0.00010477       0.00062177       0.00407196
Al       7.15890512       0.82736575      10.00019644        6      -0.00010932       0.00061987       0.00409767
Al      10.02268474       0.82737043      10.00023111        6      -0.00011256       0.00063511       0.00408293
Al       2.86323123       3.30747507      10.00016121        6      -0.00011614       0.00064021       0.00405407
Al       5.72701228       3.30746077      10.00015171        6      -0.00011908       0.00062535       0.00407039
Al       8.59078277       3.30746519      10.00013525        6      -0.00011610       0.00063127       0.00406741
Al      11.45454467       3.30747782      10.00017254        6      -0.00011196       0.00064748       0.00405797
Al       4.29509264       5.78760814      10.00017865        6      -0.00012575       0.00064554       0.00404349
Al       7.15888909       5.78759795      10.00015944        6      -0.00011118       0.00063358       0.00403823
Al      10.02268012       5.78759749      10.00015434        6      -0.00011111       0.00064722       0.00404608
Al      12.88642098       5.78761649      10.00019117        6      -0.00012165       0.00065672       0.00404958
Al       5.72697625       8.26771907      10.00018584        6      -0.00012038       0.00064219       0.00405349
Al       8.59081609       8.26770054      10.00018287        6      -0.00009851       0.00063686       0.00406335
Al      11.45458875       8.26770069      10.00021016        6      -0.00010414       0.00064174       0.00408744
Al      14.31833963       8.26772013      10.00024331        6      -0.00011822       0.00064711       0.00408802
Al       0.00827515       1.65409262      12.39462553        5       0.00090332      -0.00019825       0.00311566
Al       2.87212399       1.65385442      12.39564855        5       0.00094424      -0.00013870       0.00240479
Al       5.73589514       1.65404335      12.39635370        5       0.00086543      -0.00022396       0.00244985
Al       8.59970597       1.65389036      12.39604658        5       0.00078046      -0.00012189       0.00233255
Al       1.44035953       4.13441814      12.39600922        5       0.00086278      -0.00011090       0.00277916
Al       4.30401869       4.13460278      12.39747392        5       0.00084672      -0.00023544       0.00167870
Al       7.16764921       4.13440190      12.39739479        5       0.00089632      -0.00028049       0.00111119
Al      10.03147573       4.13427712      12.39587107        5       0.00098046      -0.00010039       0.00219652
Al       2.87206085       6.61418861      12.39575497        5       0.00082563       0.00000358       0.00349442
Al       5.73615353       6.61443592      12.39659711        5       0.00082689      -0.00010758       0.00223913
Al       8.59969926       6.61443858      12.39637160        5       0.00108320      -0.00009782       0.00203754
Al      11.46346012       6.61436163      12.39542865        5       0.00085376      -0.00001070       0.00367745
Al       4.30369538       9.09444135      12.39498755        5       0.00086151      -0.00028784       0.00356364
Al       7.16790964       9.09413769      12.39531998        5       0.00084929      -0.00015372       0.00280254
Al      10.03173446       9.09448873      12.39596429        5       0.00108674      -0.00032603       0.00298879
Al      12.89548518       9.09447724      12.39595727        5       0.00076865      -0.00026704       0.00336183
Al       0.00311164       0.00102892      14.69320816        4       0.00021746       0.00059378       0.00518328
Al       2.86677889       0.00101051      14.69327297        4       0.00025592       0.00062628       0.00520681
Al       5.73058173       0.00107553      14.69408714        4       0.00022257       0.00064085       0.00530968
Al       8.59426826       0.00108121      14.69385915        4       0.00018210       0.00063056       0.00527443
Al       1.43495643       2.48110737      14.69255895        4       0.00026963       0.00067003       0.00522995
Al       4.29855972       2.48119863      14.69264318        4       0.00024500       0.00065672       0.00524033
Al       7.16242832       2.48110364      14.69220020        4       0.00024478       0.00064327       0.00523381
Al      10.02621789       2.48097597      14.69238571        4       0.00024068       0.00063138       0.00516267
Al       2.86670232       4.96100272      14.69297509        4       0.00023896       0.00068847       0.00532136
Al       5.73034802       4.96106150      14.69154107        4       0.00029605       0.00065967       0.00513923
Al       8.59423906       4.96105969      14.69178650        4       0.00032117       0.00065221       0.00510269
Al      11.45810138       4.96093261      14.69289023        4       0.00026568       0.00069697       0.00529517
Al       4.29864926       7.44080588      14.69315849        4       0.00022939       0.00064163       0.00530923
Al       7.16242609       7.44101255      14.69223602        4       0.00027772       0.00066209       0.00519681
Al      10.02621172       7.44111331      14.69365427        4       0.00028875       0.00067618       0.00528399
Al      12.89008683       7.44096011      14.69430959        4       0.00019097       0.00067267       0.00539193
Al       1.43183202       0.82621404      17.01595260        3       0.00119526      -0.00278818      -0.02565731
Al       4.29568654       0.82701477      17.01800196        3       0.00087102      -0.00051567      -0.02328628
Al       7.15993151       0.82651783      17.01792285        3       0.00076869      -0.00166262      -0.01878849
Al      10.02359893       0.82620517      17.01695375        3      -0.00055609      -0.00232877      -0.02496822
Al       2.86394686       3.30702916      17.01971517        3       0.00103491      -0.00119807      -0.01700621
Al       5.72754170       3.30699465      17.01819562        3      -0.00107996      -0.00117959      -0.01855556
Al       8.59260165       3.30656455      17.01641905        3       0.00172562      -0.00176242      -0.02206931
Al      11.45579619       3.30629681      17.01679746        3       0.00061713      -0.00109336      -0.02333295
Al       4.29606729       5.78687463      17.01970554        3       0.00006162      -0.00375215      -0.01463863
Al       7.16000274       5.78682808      17.01614780        3       0.00001206      -0.00283144      -0.02117458
Al      10.02404244       5.78606913      17.01690473        3       0.00178382      -0.00502263      -0.02048105
Al      12.88741794       5.78687573      17.02099989        3       0.00128134      -0.00315889      -0.01453548
Al       5.72789652       8.26638142      17.01741561        3       0.00079842      -0.00506548      -0.02205865
Al       8.59150051       8.26650578      17.01656877        3       0.00004619      -0.00390158      -0.02397252
Al      11.45556487       8.26665462      17.01999859        3       0.00135967      -0.00469965      -0.01812094
Al      14.31937353       8.26636885      17.01948975        3       0.00113664      -0.00518399      -0.01682671
Al       0.00088525       1.66257591      19.26340347        2       0.00201442       0.00052119      -0.00516494
Al       2.86958877       1.65858205      19.27490367        2      -0.00100879      -0.00057634      -0.00659712
Al       5.73129886       1.66821228      19.27453810        2       0.00072490      -0.00308492      -0.00947419
Al       8.59394924       1.66761119      19.27478515        2       0.00258603      -0.00394682       0.00035016
Al       1.43531812       4.12565779      19.27711501        2       0.00127340      -0.00147141      -0.01216464
Al       4.30515418       4.13764234      19.30031742        2      -0.00645989      -0.00310228      -0.00884828
Al       7.15990383       4.13706083      19.28746804        2       0.00635577      -0.00823704      -0.01330148
Al      10.02169748       4.13185139      19.28896605        2       0.01386685      -0.00509429       0.01029132
Al       2.87345070       6.60454405      19.29097971        2       0.00101825       0.00011988      -0.00823306
Al       5.73297030       6.60207853      19.28823197        2      -0.00324506       0.01226644      -0.00957829
Al       8.59366445       6.60259693      19.27259674        2       0.01481771       0.01630304       0.00300838
Al      11.45682681       6.60444400      19.28420963        2       0.00225329       0.00343681       0.00701050
Al       4.30569197       9.09911078      19.26712619        2       0.00174928       0.00268603      -0.00627217
Al       7.16153560       9.09402675      19.27045682        2       0.00148146       0.00707705       0.00254129
Al      10.01375151       9.10389549      19.26806040        2       0.00404790      -0.00022303       0.01761997
Al      12.89744467       9.09657587      19.27886643        2      -0.00070571      -0.00088423       0.01321803
Al      -0.00612989      -0.00375849      21.67830117        1      -0.00361805       0.00274193       0.00023354
Al       2.85985307       0.00213344      21.69094602        1      -0.00174846       0.00065307       0.00759543
Al       5.73092975       0.00892115      21.66319360        1       0.00102272      -0.00318058      -0.01537070
Al       8.58797140       0.01483401      21.68015118        1      -0.00405990       0.00140426       0.00095147
Al       1.42406959       2.47713031      21.66794344        1      -0.00726973       0.00109541      -0.02577784
Al       4.31362029       2.47869649      21.60406665        1       0.00291769      -0.00119714      -0.01441877
Al       7.16500507       2.49537788      21.59308568        1       0.00115826       0.00153406      -0.00060917
Al      10.00561662       2.48269152      21.65067947        1       0.00177619       0.00069973      -0.02262915
Al       2.87731241       4.96046136      21.62080433        1      -0.00142683      -0.00088199      -0.01057837
Al       5.74035410       4.95595407      21.53116618        1       0.00722166       0.00852708       0.04814870
Al       8.60159615       4.98060976      21.53183951        1       0.00308404      -0.00282824       0.04038942
Al      11.44531426       4.96307951      21.65071230        1       0.00614813      -0.00061841      -0.02123042
Al       4.30028888       7.45003469      21.59764068        1       0.00079671       0.00418748      -0.00986415
Al       7.17858703       7.44255615      21.52459108        1      -0.00143651       0.00475887       0.01759170
Al      10.01376236       7.43234557      21.67980900        1       0.00470757       0.00521361      -0.01557462
Al      12.89414227       7.44594084      21.69790316        1       0.00077372       0.00138194       0.00964093
C        5.21427162       5.44423122      24.67754137        0       0.08157789       0.05205466       0.00856919
C        6.47315640       6.03178595      24.66244704        0       0.04280485       0.03527236       0.00510277
C        7.60175059       5.18244533      24.75748140        0       0.06799137       0.02461092       0.00893191
N        8.93772755       5.45238125      24.67453046        0      -0.08618166      -0.01642572       0.04937813
N        9.50753011       4.25045954      24.90268960        0      -0.02592667      -0.00089954      -0.03194911
N        8.67921067       3.19500262      24.95189367        0      -0.04883226       0.00412048       0.01265844
C        7.44305080       3.76736842      24.90660003        0       0.00257537      -0.04053896       0.00417146
C        6.15015392       3.18474902      24.89401831        0       0.05167223      -0.04500086      -0.00132084
C        5.05626473       4.03120231      24.78262992        0       0.06080427      -0.04305901       0.01052000
H        4.33013426       6.07105158      24.55089462        0      -0.03855132      -0.00827736       0.03608664
H        6.62300621       7.10868580      24.55279436        0      -0.04932512      -0.03856514       0.02315561
H       10.50212979       4.11271912      24.69115707        0      -0.08267391       0.01924322       0.02098089
H        6.05035733       2.09642342      24.90294585        0      -0.02817348       0.04312453       0.01476021
H        4.05106046       3.61212297      24.71808518        0      -0.02604500       0.00320171       0.01038308
