110
Lattice="11.45512985522207 0.0 0.0 5.727564927611035 9.92043345827187 0.0 0.0 0.0 31.691342951089922" Properties=species:S:1:pos:R:3:tags:I:1:forces:R:3 energy=-462.2720947265625 free_energy=-462.2720947265625 stress="0.004793696571141481 1.4184042811393738e-06 -3.334134817123413e-07 1.4184042811393738e-06 0.004864088725298643 1.0579824447631836e-06 -3.334134817123413e-07 1.0579824447631836e-06 0.004929406568408012" pbc="T T F"
Al       2.54718655       0.91450828       9.98385958        6      -0.00281275      -0.00139804      -0.00142446
Al       5.41429243       0.90458304       9.97551144        6      -0.00233930      -0.00138440      -0.00030520
Al       8.27208405       0.90040704       9.96382477        6      -0.00135423      -0.00097821       0.00129178
Al      11.14084804       0.89672153       9.98302901        6      -0.00190210      -0.00097646      -0.00005521
Al       3.98795336       3.38798572       9.97038752        6      -0.00266112      -0.00130171       0.00019715
Al       6.85368277       3.38031369       9.95498806        6      -0.00189536      -0.00093103       0.00177265
Al       9.71472410       3.38397130       9.96438658        6      -0.00209920      -0.00141201       0.00137581
Al      12.56191207       3.39840116       9.97450641        6      -0.00155457      -0.00235169      -0.00013164
Al       5.42105204       5.86655504       9.96808050        6      -0.00187412      -0.00116882       0.00169586
Al       8.28166354       5.86432619       9.96214219        6      -0.00184628      -0.00129157       0.00212700
Al      11.14062414       5.87985000       9.95810669        6      -0.00207304      -0.00178768       0.00173106
Al      14.00256911       5.87106748       9.95857508        6      -0.00155815      -0.00156648       0.00178638
Al       6.85555334       8.34503319       9.99617799        6      -0.00344261      -0.00253951      -0.00231709
Al       9.70887778       8.35431261       9.98171851        6      -0.00302788      -0.00245037      -0.00151643
Al      12.57186317       8.34892268       9.97171785        6      -0.00194667      -0.00180233       0.00034444
Al      15.43470094       8.34429664       9.97411868        6      -0.00147833      -0.00175958       0.00036300
Al       1.08545445       1.65361187      12.34229921        5      -0.00061504       0.00352975       0.00939498
Al       3.94999363       1.65633336      12.34393637        5       0.00089505       0.00451213       0.00347320
Al       6.81376029       1.65075097      12.33751796        5       0.00259993       0.00687448       0.00429206
Al       9.67483960       1.64736279      12.34817226        5      -0.00070835       0.00895238      -0.00150046
Al       2.52086585       4.14036120      12.33819904        5      -0.00025640       0.00052760       0.00281197
Al       5.38598144       4.14003185      12.34137959        5       0.00301056       0.00212035      -0.00832132
Al       8.24903875       4.13617501      12.34678947        5      -0.00239270       0.00122177      -0.00569491
Al      11.10780468       4.13499066      12.34338853        5      -0.00089919       0.00170205       0.00338613
Al       3.95278227       6.61971717      12.35530337        5       0.00340385      -0.00053934      -0.00922412
Al       6.81737391       6.62127127      12.36724292        5      -0.00002364      -0.00504398      -0.01650861
Al       9.67708970       6.61431314      12.35814092        5      -0.00146267       0.00182808      -0.00604954
Al      12.54357049       6.61760398      12.34957270        5       0.00157700       0.00046805      -0.00157268
Al       5.37854450       9.09217458      12.35213827        5       0.00191839       0.00008217       0.00557000
Al       8.24220672       9.09997876      12.35854210        5       0.00216166      -0.00373907       0.00270112
Al      11.10415591       9.09168501      12.34323893        5       0.00394431       0.00241783       0.00663136
Al      13.98001583       9.09299809      12.34318841        5      -0.00220596       0.00134296       0.00362163
Al       1.05314728      -0.01939826      14.64511918        4       0.00977891       0.00415540       0.00373393
Al       3.92476100      -0.01272602      14.63303943        4       0.00012206      -0.00064089       0.00136036
Al       6.80918144      -0.01969277      14.61407346        4      -0.00415638       0.00060914       0.00770900
Al       9.66727848      -0.02342861      14.65709106        4      -0.00234481       0.00278355      -0.00494338
Al       2.49222738       2.47107624      14.63485063        4       0.00200306      -0.00520523      -0.00658568
Al       5.36036396       2.47224652      14.62685117        4       0.00391531      -0.00783547      -0.00494042
Al       8.21759034       2.46060262      14.64372200        4       0.00812404      -0.00333642      -0.01429791
Al      11.08034547       2.44794141      14.63353498        4       0.00305155       0.00298318       0.00325207
Al       3.93758959       4.94645758      14.62618647        4      -0.00147758      -0.00076002       0.00146521
Al       6.78704004       4.93877332      14.63567461        4       0.00328673       0.00067457       0.00229266
Al       9.65439843       4.93558760      14.64642396        4       0.00306265       0.00113815      -0.00506500
Al      12.52110210       4.94351774      14.62665444        4      -0.00067247      -0.00086366       0.00254843
Al       5.36644108       7.43038431      14.66894468        4       0.00344566      -0.00846980      -0.01906981
Al       8.21867631       7.42682671      14.66094103        4       0.00537376      -0.00173406      -0.00997544
Al      11.09663770       7.42699843      14.63974692        4      -0.00167196      -0.00136629      -0.00078573
Al      13.97133613       7.43752367      14.64555326        4      -0.00389370      -0.00931043      -0.00757702
Al       2.49027416       0.80315193      16.94621310        3      -0.00278145      -0.00932120      -0.00230345
Al       5.35907303       0.79115578      16.91193021        3       0.00302106       0.00017015       0.00032825
Al       8.22959017       0.78966819      16.94367475        3      -0.00260001      -0.00326938       0.00136452
Al      11.09051718       0.77619276      16.97874470        3      -0.00184923      -0.00511505      -0.00237261
Al       3.94220762       3.27524525      16.92166945        3      -0.00328199      -0.00747113       0.00292580
Al       6.79496665       3.25637519      16.94343388        3      -0.00415526       0.00254487      -0.00616857
Al       9.65136808       3.26288509      16.94175290        3       0.00714639      -0.00396247      -0.00627861
Al      12.52053741       3.26228359      16.92405618        3      -0.00225620      -0.00112220       0.00511792
Al       5.34921501       5.73910116      16.95155663        3       0.01968457       0.00544954      -0.00199465
Al       8.21527914       5.74408495      16.93669991        3      -0.00487470       0.00026741      -0.00065566
Al      11.09534964       5.76041131      16.93630078        3      -0.00337635      -0.01432400      -0.01498369
Al      13.96786572       5.73488934      16.92269156        3      -0.00096105       0.00276041      -0.00111585
Al       6.77519321       8.24760118      16.97337362        3      -0.00407481      -0.00860232       0.00205049
Al       9.65085512       8.24731986      16.93491729        3      -0.00392254      -0.01471331      -0.01484355
Al      12.52953071       8.22348528      16.92791766        3       0.00453298       0.00367274      -0.00571280
Al      15.40304744       8.23399629      16.96614792        3      -0.00098233      -0.00069447       0.00401293
Al       1.05071027       1.59252141      19.23507216        2       0.00325505       0.00046257       0.00297663
Al       3.94211349       1.61906901      19.19613614        2       0.00187915      -0.00269814       0.00253319
Al       6.77681390       1.60960551      19.22803911        2       0.00101914       0.00026708      -0.00401725
Al       9.67026016       1.60028905      19.21952040        2      -0.00257955       0.00200117       0.00769208
Al       2.53122419       4.08539875      19.18861213        2      -0.00633397      -0.00372006      -0.00080983
Al       5.37483111       4.07006476      19.22423935        2      -0.00016857      -0.00106999       0.00231681
Al       8.22769532       4.07566327      19.19731393        2      -0.00110847       0.00399993       0.00403365
Al      11.09288299       4.09300380      19.20730966        2       0.00099884      -0.00549862       0.00348256
Al       3.95825553       6.57498648      19.21976182        2      -0.00385271      -0.00366853       0.00496634
Al       6.78549004       6.57316027      19.22960639        2       0.00095356      -0.00924749       0.00449404
Al       9.65560664       6.55874592      19.17115127        2      -0.00123487      -0.00546564       0.00168610
Al      12.56425468       6.55452677      19.16159654        2      -0.00539742       0.00260174       0.00186627
Al       5.34531578       9.04178700      19.43945425        2       0.01851385      -0.00420417      -0.00983480
Al       8.20862362       9.03026540      19.19928577        2       0.00036484       0.00689006       0.01472067
Al      11.09876551       9.06474109      19.14555880        2       0.00275160      -0.00908576       0.00777268
Al      13.97805198       9.06282703      19.20105636        2      -0.00667890      -0.00481003       0.00220965
Al       1.10558887      -0.03382963      21.82465986        1      -0.00876716       0.00031236       0.00699839
Al       3.97562834      -0.07532380      21.44002252        1      -0.01040127      -0.00616652       0.03075534
Al       6.80323088      -0.09404156      21.52058254        1      -0.00876358       0.01547173       0.00356821
Al       9.58589934       0.02663758      21.78245311        1       0.00093884       0.00048351       0.00253861
Al       2.53238561       2.42003346      21.49045766        1      -0.01847523       0.00475026       0.00521050
Al       5.32668242       2.36322069      21.93937078        1      -0.00218118       0.00595161       0.01201446
Al       8.20647538       2.45219883      21.51852384        1      -0.00081195       0.00648428       0.01842368
Al      11.10403454       2.47565867      21.58601940        1      -0.00363754      -0.00396780      -0.00462261
Al       3.96415324       4.88115789      21.53042172        1      -0.00797960       0.00383346      -0.00315703
Al       6.80050484       4.92421238      21.60315742        1      -0.00051417      -0.00212094      -0.00336197
Al       9.68426353       4.88345881      21.58342187        1       0.00042294       0.00481842      -0.00928974
Al      12.56894226       4.88199707      21.46306820        1      -0.00353290       0.00511754       0.00101024
Al       5.30268648       7.36080092      21.91913167        1      -0.00736975      -0.00675356       0.00821083
Al       8.27499989       7.35989468      21.54044044        1      -0.00522556       0.00510200      -0.01222284
Al      11.12191669       7.32820138      21.39024070        1      -0.00528183       0.01983804       0.01468383
Al      13.93894197       7.42993327      21.52120716        1       0.00484601      -0.00873811      -0.00941469
C        1.08077471       5.57633576      24.58127498        0       0.04758738      -0.00327735       0.01330521
C        0.98671723       4.21459174      24.83305442        0      -0.03001719       0.05160707       0.00085939
C       -0.27418562       3.71714098      25.23615631        0      -0.00542295      -0.02352159       0.00763873
N       -0.64499249       2.48585762      25.66927475        0      -0.01527983       0.01541538      -0.00907174
N       -1.95366041       2.63649742      25.92323821        0       0.07059847       0.02548755      -0.03525201
N       -2.49599665       3.83600849      25.67602074        0       0.01655903       0.01026814       0.00812566
C       -1.43348211       4.57119272      25.26537510        0      -0.02842626       0.02642108      -0.00641729
C       -1.32887542       5.93366320      24.89909368        0       0.04980786       0.04854560       0.02620768
C       -0.06200674       6.43541153      24.63894193        0      -0.04711194      -0.03052359      -0.02409611
H        2.05540308       6.01504614      24.34406013        0      -0.01160054       0.00148557      -0.00700973
H        1.83918909       3.54576492      24.71988900        0       0.05229556      -0.02869395      -0.00629751
H       -2.51179396       1.86281817      26.27821057        0      -0.02945862      -0.02838673       0.00124138
H       -2.20968225       6.57473989      24.84970448        0      -0.01767733      -0.01328449       0.00306977
H        0.06725726       7.49850608      24.42310199        0       0.01820444       0.01703224       0.01182370
