110
Lattice="11.45512985522207 0.0 0.0 5.727564927611035 9.92043345827187 0.0 0.0 0.0 31.691342951089922" Properties=species:S:1:pos:R:3:tags:I:1:forces:R:3 energy=-461.87420654296875 free_energy=-461.87420654296875 stress="0.0045155612751841545 1.8230639398097992e-06 -3.841705620288849e-07 1.8230639398097992e-06 0.004572516772896051 8.614733815193176e-07 -3.841705620288849e-07 8.614733815193176e-07 0.004579929634928703" pbc="T T F"
Al       1.43813483       0.84093832      10.02186968        6       0.00038655      -0.00001185      -0.00064538
Al       4.30069109       0.84144482      10.02961701        6       0.00049723       0.00001230      -0.00060185
Al       7.16605255       0.84213701      10.03010913        6       0.00047412       0.00026805       0.00036197
Al      10.02784795       0.84517356      10.02234497        6       0.00039389       0.00021338       0.00037431
Al       2.86787129       3.32169343      10.01597486        6       0.00040146       0.00055383       0.00073341
Al       5.73152687       3.32065288      10.01746292        6       0.00051828       0.00046648       0.00132099
Al       8.59558992       3.32299922      10.01699320        6       0.00047293       0.00051303       0.00123377
Al      11.46095987       3.32159658      10.01650376        6       0.00040925       0.00053133       0.00076039
Al       4.29730200       5.80201090      10.02399590        6       0.00037668       0.00052451       0.00113774
Al       7.16127771       5.80095972      10.02462416        6       0.00042352       0.00044293       0.00129807
Al      10.02678161       5.80251565      10.02935864        6       0.00046667       0.00033486       0.00055186
Al      12.89087188       5.80502253      10.03239451        6       0.00039482       0.00042210       0.00096658
Al       5.72902149       8.28290667      10.02627103        6       0.00031306       0.00037455       0.00058104
Al       8.59536291       8.28066072      10.03165530        6       0.00043302       0.00024915      -0.00016527
Al      11.45962484       8.28371185      10.03660760        6       0.00040094       0.00026999       0.00035057
Al      14.32224295       8.28478615      10.03239728        6       0.00046227       0.00035029       0.00085736
Al       0.03588060       1.65599880      12.37602926        5       0.00018137       0.00089455       0.00601897
Al       2.89701313       1.65253019      12.37747945        5       0.00100109       0.00273463       0.00521589
Al       5.76332444       1.65196711      12.38606768        5       0.00143895       0.00304773       0.00208741
Al       8.62797728       1.65680656      12.38441336        5      -0.00070099      -0.00001953       0.00380773
Al       1.46436866       4.13791160      12.38873608        5       0.00421819       0.00198675      -0.00220064
Al       4.33044463       4.13865510      12.38452066        5       0.00140955       0.00178876      -0.00125216
Al       7.19737929       4.13732021      12.39295737        5      -0.00212657       0.00036039      -0.00640168
Al      10.05986091       4.13764902      12.38693822        5       0.00054139       0.00050140      -0.00036130
Al       2.89721787       6.62014790      12.40104501        5       0.00235094       0.00160054      -0.00260535
Al       5.76314594       6.61967902      12.39457403        5      -0.00193518       0.00035078      -0.00317182
Al       8.63036653       6.61806120      12.39699179        5      -0.00189009       0.00029305      -0.00128408
Al      11.48733302       6.62020132      12.40450412        5       0.00460463       0.00111110      -0.00222530
Al       4.33163306       9.10283908      12.39375743        5      -0.00060791      -0.00330534       0.00381688
Al       7.19524723       9.09936279      12.38625802        5      -0.00069619      -0.00100474       0.00676054
Al      10.05742594       9.09494650      12.39931308        5       0.00172996       0.00164395       0.00279444
Al      12.92002284       9.09808420      12.40121233        5       0.00272766      -0.00052484       0.00233283
Al       0.04220985       0.00292824      14.67882685        4       0.00080340       0.00034161       0.00148323
Al       2.90388121       0.00273294      14.67693199        4       0.00049097      -0.00015033       0.00102589
Al       5.76808199       0.00139794      14.69171513        4       0.00219659      -0.00232862      -0.00801168
Al       8.63113337       0.00118617      14.68430366        4       0.00115671       0.00003786       0.00109681
Al       1.47383291       2.47353434      14.65872683        4       0.00083068       0.00100832       0.00268465
Al       4.33584580       2.47516005      14.64870392        4       0.00101022       0.00060466       0.00500422
Al       7.20343992       2.47193479      14.67158441        4       0.00085937       0.00036319      -0.00112405
Al      10.06698986       2.47279975      14.66083218        4       0.00115391       0.00082061       0.00216495
Al       2.90890710       4.96284110      14.67248201        4       0.00023160      -0.00048392      -0.00050677
Al       5.77032480       4.96389911      14.67307686        4       0.00159703      -0.00270265      -0.01176814
Al       8.63988877       4.96161493      14.67202978        4       0.00097366       0.00027259       0.00093189
Al      11.50136413       4.96339822      14.67139706        4       0.00042810       0.00017351       0.00177438
Al       4.34019776       7.45208908      14.68372388        4       0.00037738      -0.00029674       0.00118315
Al       7.20120872       7.44575041      14.66948901        4       0.00128073       0.00047584       0.00290353
Al      10.06507223       7.44955375      14.69150965        4       0.00156357      -0.00060310       0.00096604
Al      12.93241673       7.44967745      14.69322034        4      -0.00026801      -0.00034109      -0.00129886
Al       1.48082202       0.80842919      16.98306003        3      -0.00028974       0.00121115       0.00156525
Al       4.33969686       0.79940119      16.97253946        3      -0.00248417       0.00450267       0.00026309
Al       7.20781397       0.79690719      16.98880727        3       0.00088956       0.00006097      -0.00089757
Al      10.06396452       0.81212640      16.98481928        3       0.00557877      -0.00288439      -0.00371200
Al       2.91105237       3.28698764      16.95450400        3      -0.00010322      -0.00029629       0.00311413
Al       5.77578376       3.28747974      16.94365897        3      -0.00026194      -0.00138537       0.00179575
Al       8.65222663       3.28870368      16.95152772        3      -0.00015867      -0.00106824       0.00179450
Al      11.50077729       3.29529413      16.95751735        3       0.00368880      -0.00169038       0.00380510
Al       4.34812287       5.77676707      16.96118893        3      -0.00622950       0.00035525      -0.00180590
Al       7.21303282       5.77930897      16.96056924        3       0.00174408       0.00088956      -0.00845346
Al      10.07803910       5.78348459      16.97995419        3       0.00393501       0.00041562      -0.00129200
Al      12.93497705       5.78542597      16.96461532        3       0.00093513      -0.00405269       0.01037287
Al       5.78838446       8.26712170      16.98177009        3      -0.00360667       0.00438454      -0.00342798
Al       8.63590426       8.26313171      16.98704380        3       0.00090394       0.00110372      -0.00006324
Al      11.50819611       8.26334292      17.00708076        3      -0.00046555      -0.00254174       0.00225310
Al      14.36036657       8.26115518      17.00081958        3       0.00344751      -0.00255508      -0.00238558
Al       0.05360017       1.64213655      19.24273004        2      -0.00083470      -0.00192478      -0.01021519
Al       2.90972724       1.63010028      19.25786057        2      -0.00201150      -0.00171323      -0.00027418
Al       5.76208522       1.64107484      19.20128221        2       0.00177061       0.00022225       0.00183883
Al       8.63540765       1.63987458      19.23000171        2       0.00118604       0.00095451      -0.00615184
Al       1.48421791       4.11438570      19.23693779        2      -0.00248618       0.00337518      -0.00739975
Al       4.34880503       4.12199457      19.21105288        2       0.00201097       0.00270768      -0.00518402
Al       7.22323632       4.12821802      19.18256016        2      -0.00324568      -0.00210108       0.00427522
Al      10.07183402       4.12807564      19.22144211        2       0.00164041      -0.00188863      -0.00492606
Al       2.92046427       6.59390297      19.25227144        2      -0.00719023       0.00317447      -0.00179815
Al       5.78173621       6.61435830      19.17368279        2       0.00221940      -0.00059889       0.01286229
Al       8.63739459       6.61343213      19.21060692        2       0.00159618      -0.00000559      -0.00257772
Al      11.52392213       6.60122727      19.28731714        2       0.00016680      -0.00083332      -0.00475995
Al       4.35087179       9.09153200      19.25832765        2       0.00056486       0.00171513      -0.00280869
Al       7.21116142       9.10654257      19.31693390        2       0.00039989       0.00386488      -0.00374287
Al      10.05634657       9.10622583      19.26570738        2       0.00078644      -0.00411664      -0.00284976
Al      12.93826395       9.05002707      19.34234255        2       0.00055488       0.00084145      -0.00585161
Al      -0.10765165      -0.01864478      21.76940570        1       0.00361889       0.00016613      -0.00119027
Al       2.77353083       0.00103830      21.95779319        1       0.00135928      -0.00128520      -0.00451158
Al       5.68511211       0.03051575      21.59397814        1       0.00139722      -0.00169873      -0.00340519
Al       8.51397188       0.01600514      21.67130182        1       0.00420246      -0.00056773       0.00103396
Al       1.45560280       2.46701331      21.56888330        1      -0.00018875       0.00067685       0.00038271
Al       4.38296427       2.51058482      21.50670002        1      -0.00056509      -0.00199286       0.00018510
Al       7.21073189       2.53319548      21.53158716        1       0.00006074      -0.00024927      -0.00118499
Al      10.03221084       2.49441721      21.56059161        1      -0.00072943       0.00139193       0.00312105
Al       2.92125415       4.96678339      21.51867844        1       0.00162800      -0.00190544       0.01624733
Al       5.81107017       4.96401036      21.49025545        1      -0.00249326       0.00189005       0.00530555
Al       8.61548957       4.98150491      21.51231264        1       0.00101197       0.00023160       0.00103783
Al      11.48255746       4.95276665      21.58969865        1      -0.00587883       0.00139006       0.00294817
Al       4.29602329       7.44085771      21.52713879        1       0.00207820      -0.00615213       0.00741229
Al       7.17317458       7.41601018      21.53810484        1      -0.00103884       0.00042031      -0.00179506
Al      10.00870795       7.45770058      21.57762482        1      -0.00032622      -0.00236436       0.00213777
Al      12.82341558       7.44998244      22.00338321        1       0.00612445       0.00194539      -0.02537856
C        5.06412717       5.49575252      24.85361440        0       0.00498071      -0.00036345      -0.02524767
C        6.33456385       6.04997017      24.89391362        0      -0.00683025      -0.00477783       0.03134728
C        7.43561575       5.16174020      24.94944558        0      -0.01638904       0.01546729      -0.00072779
N        8.77557067       5.39717408      24.96113381        0      -0.03074631       0.01030090      -0.00783255
N        9.30034073       4.16321437      24.96955714        0      -0.00743830      -0.01285199       0.01217904
N        8.44674090       3.12670485      24.92134004        0       0.00409849      -0.00081070      -0.00664062
C        7.23115668       3.73463483      24.91905304        0      -0.00775942       0.00258683       0.00262915
C        5.92680493       3.19350087      24.83434940        0       0.00139167       0.00101916      -0.00722604
C        4.86355774       4.08237621      24.79961725        0       0.00539945       0.00197624       0.01772116
H        4.18299055       6.13633439      24.78361926        0       0.01009080       0.01697914       0.00892563
H        6.50432682       7.12740403      24.88559498        0      -0.00719243       0.00067409      -0.00962681
H       10.30003401       4.03061857      24.80082340        0       0.00074791      -0.02753787       0.00051061
H        5.77928781       2.11715687      24.73568196        0      -0.00294253      -0.01186227       0.00550510
H        3.84271908       3.70485585      24.70604706        0       0.00391831       0.00301870      -0.00818342
