110
Lattice="11.45512985522207 0.0 0.0 5.727564927611035 9.92043345827187 0.0 0.0 0.0 31.691342951089922" Properties=species:S:1:pos:R:3:tags:I:1:forces:R:3 energy=-462.90478515625 free_energy=-462.90478515625 stress="0.005294592585414648 5.098991096019745e-07 -8.102506399154663e-08 5.098991096019745e-07 0.005370730999857187 1.9650906324386597e-06 -8.102506399154663e-08 1.9650906324386597e-06 0.0055673690512776375" pbc="T T F"
Al       2.24075083       1.10088503       9.86023847        6       0.00039911      -0.00176823      -0.00134205
Al       5.09991457       1.10066953       9.86709295        6       0.00052443      -0.00163448      -0.00093699
Al       7.97015254       1.11319555       9.80787407        6      -0.00012789      -0.00228644       0.00126629
Al      10.83301010       1.11405991       9.82704024        6      -0.00014325      -0.00264180       0.00050688
Al       3.67558156       3.58536474       9.87396917        6       0.00032119      -0.00224250      -0.00219799
Al       6.53886822       3.58555383       9.84958297        6      -0.00025072      -0.00179730       0.00070172
Al       9.40376950       3.59547489       9.82844389        6      -0.00051135      -0.00293060       0.00053889
Al      12.26811901       3.58533111       9.85982889        6       0.00046559      -0.00190887      -0.00125341
Al       5.10724950       6.06835287       9.82610177        6      -0.00018912      -0.00192508       0.00133771
Al       7.96261473       6.06953358       9.80762690        6      -0.00011306      -0.00261091       0.00108261
Al      10.83053910       6.06344506       9.84405061        6       0.00064778      -0.00139752      -0.00004956
Al      13.69877475       6.07232914       9.81855493        6       0.00029492      -0.00157829       0.00142416
Al       6.53973806       8.54714833       9.84174526        6      -0.00057373      -0.00185111      -0.00004172
Al       9.39664435       8.53523845       9.86356107        6       0.00059773      -0.00152489      -0.00281292
Al      12.26178511       8.54741495       9.83986579        6       0.00049637      -0.00160210       0.00045266
Al      15.13440476       8.55149490       9.79071654        6      -0.00001532      -0.00126254       0.00195539
Al       0.82843548       1.79389744      12.23043648        5      -0.00089403       0.00219566       0.00214593
Al       3.69210340       1.80104965      12.24713768        5       0.00505155      -0.00153652      -0.00000020
Al       6.55098966       1.79420165      12.24108490        5       0.01387682       0.00111031      -0.00347439
Al       9.41521795       1.79126438      12.22669172        5      -0.00111870       0.00190376      -0.00526191
Al       2.27057498       4.27385011      12.23547306        5      -0.00287456       0.00433725       0.00305879
Al       5.12108139       4.26824760      12.25328514        5       0.01449989       0.01468622      -0.01195450
Al       7.98093557       4.27691223      12.24549380        5       0.00089317      -0.00411235      -0.02178252
Al      10.85066691       4.27437934      12.23158564        5      -0.00181835       0.00145174      -0.00320118
Al       3.68406903       6.75347740      12.23296043        5       0.01943305       0.00479922      -0.00539584
Al       6.54501539       6.75292152      12.23894960        5       0.00406808       0.00001260      -0.00976748
Al       9.41549013       6.74742218      12.21456282        5      -0.00087185       0.00344166       0.00922092
Al      12.29730415       6.75825755      12.23507337        5      -0.00542651      -0.00010281      -0.01000611
Al       5.12727486       9.24061430      12.22392940        5      -0.00363514      -0.00740476      -0.00179057
Al       7.98867584       9.24537718      12.22131200        5      -0.00144577      -0.00637077       0.01608642
Al      10.84829712       9.24111462      12.22659926        5       0.00751414      -0.00320480       0.01032147
Al      13.71980529       9.23414592      12.22113879        5       0.00306163       0.00204813       0.00390140
Al       0.84532988       0.05331871      14.54004447        4       0.00309315      -0.00002765       0.00205282
Al       3.70434329       0.06960478      14.53234933        4       0.01000360      -0.00288995       0.00209532
Al       6.57519661       0.06911491      14.53129990        4       0.00375174      -0.00103459       0.00327899
Al       9.46186826       0.05753863      14.53529449        4      -0.01156780       0.00142651       0.00135548
Al       2.27103417       2.53657564      14.53293211        4       0.00748716       0.00148129       0.00576391
Al       5.14486204       2.54583112      14.56047305        4       0.00400891      -0.00651659      -0.01094387
Al       8.01060422       2.55058210      14.54611903        4       0.00120884      -0.00920989      -0.00802076
Al      10.86485830       2.53885420      14.51585200        4       0.00300558       0.00061562       0.01199674
Al       3.72257870       5.00885440      14.55316629        4       0.00003946       0.00590130      -0.00520854
Al       6.57826960       5.03007849      14.57349575        4      -0.00710068      -0.00795748      -0.03409420
Al       9.41855817       5.02676600      14.53187873        4       0.01440639      -0.00011705       0.00479028
Al      12.29884704       5.01670509      14.51289596        4       0.00634066       0.00357935       0.00625909
Al       5.14372512       7.50457460      14.55813652        4      -0.00003004      -0.00101026       0.00187084
Al       7.98500967       7.49694555      14.53305589        4       0.01686134       0.00819359       0.00846600
Al      10.85473288       7.50451749      14.51313477        4       0.01442901       0.00370579       0.00339008
Al      13.75007238       7.50384517      14.54745081        4      -0.00321892       0.00061078      -0.00510795
Al       2.35201047       0.79938074      16.85091590        3      -0.00876196       0.01117640       0.00100936
Al       5.21897483       0.83299918      16.89079190        3      -0.00355174      -0.01157425      -0.01992374
Al       8.07387331       0.83131930      16.86783200        3      -0.00378092      -0.00453423      -0.00155137
Al      10.92464270       0.78851529      16.86562420        3       0.01171641       0.01848361      -0.00215875
Al       3.78302053       3.29586194      16.87106497        3      -0.01421861      -0.00086712       0.00479159
Al       6.62089022       3.28935692      16.86049052        3       0.01229488       0.01164773       0.03551404
Al       9.47861711       3.28360093      16.85770371        3       0.03223846       0.01857520      -0.00154581
Al      12.35775300       3.28862667      16.82956855        3      -0.00006357      -0.00036639       0.00277921
Al       5.20470053       5.77150243      16.88933977        3      -0.00334044       0.00256347       0.00350801
Al       8.01398449       5.76570147      16.87304010        3       0.05923535       0.02549191       0.00958406
Al      10.91462505       5.77947036      16.80145683        3      -0.00511855      -0.01357881       0.00584878
Al      13.79959164       5.76716556      16.82516405        3       0.00022031       0.00010960       0.00398053
Al       6.62400147       8.23700152      16.90791832        3      -0.00003484       0.00161760      -0.02364145
Al       9.51021549       8.27625601      16.83529360        3      -0.02213828      -0.02448344      -0.01140543
Al      12.36665218       8.27066673      16.83636819        3      -0.00004666      -0.00075246       0.00103983
Al      15.20290990       8.27810093      16.89484154        3       0.02830069      -0.02430453      -0.02794112
Al       0.97636783       1.62054028      19.12719326        2      -0.00252751       0.00048713      -0.00767918
Al       3.82000951       1.63053401      19.17050439        2       0.00055775      -0.00743219       0.00031927
Al       6.70571448       1.64510018      19.20785830        2      -0.00685290      -0.01262087       0.00541520
Al       9.55813544       1.61680103      19.16671414        2      -0.00669393       0.00195519      -0.01190944
Al       2.38834444       4.10030390      19.16481764        2       0.00087595      -0.00024670      -0.00712310
Al       5.27567782       4.09995454      19.22094995        2      -0.00358311      -0.00209083      -0.00264992
Al       8.12060822       4.09294792      19.16896155        2      -0.01878846      -0.00882311       0.01179042
Al      11.00669799       4.10615531      19.15333154        2      -0.00650239      -0.02093274      -0.05888141
Al       3.83400327       6.58276588      19.14552675        2      -0.01900769      -0.01509684       0.01740381
Al       6.66971384       6.57216369      19.31910791        2       0.03705221      -0.00654491       0.03039508
Al       9.51264819       6.56885875      19.08581205        2      -0.00796609      -0.00448605       0.06439324
Al      12.38403827       6.53595296      19.06239087        2       0.01494338       0.01399883       0.00897694
Al       5.23846590       9.04471354      19.23315329        2      -0.01136631      -0.00158552      -0.01133953
Al       8.12440255       9.03115324      19.14513274        2       0.00355073       0.00328619       0.04728963
Al      10.98066717       9.03459702      19.13212742        2      -0.00298695       0.01321745      -0.00527389
Al      13.82429524       9.10394649      19.18651454        2       0.00066839      -0.00669367      -0.01335964
Al       0.97299810      -0.08023270      21.45084358        1       0.01133176       0.00000317       0.04409860
Al       3.77682097      -0.11665038      21.60018311        1       0.00041592       0.00129604       0.00881270
Al       6.63188384      -0.17406162      21.65434248        1       0.00193395       0.00626617       0.00463168
Al       9.61152826      -0.14367446      21.69359407        1      -0.01248519       0.00909459       0.00287433
Al       2.33625486       2.41672425      21.54851758        1       0.00820041       0.00613704      -0.00319179
Al       5.18559919       2.38820659      21.59332964        1       0.00076423       0.00043548       0.01150160
Al       8.21106095       2.40924066      21.76946887        1      -0.02480726      -0.02983076      -0.03297696
Al      11.03242612       2.39831451      21.43788640        1      -0.01704259       0.01469930       0.01001353
Al       3.78010447       4.90156347      21.51575696        1       0.00226240      -0.00253947       0.00216544
Al       6.71416894       4.82607527      21.82850707        1      -0.00490260       0.00067211      -0.00274962
Al       9.60338863       4.83265064      21.39816282        1      -0.02451412       0.04013460       0.03120862
Al      12.43565642       4.90269066      21.53423482        1      -0.00756940      -0.01299017      -0.01089703
Al       5.30701315       7.29812284      21.75886559        1      -0.02318161       0.00170555      -0.00510307
Al       8.23996320       7.32214762      21.86769718        1      -0.02331045      -0.00334201      -0.03001261
Al      10.99170630       7.30279119      21.34482806        1      -0.00763026       0.01084068       0.02340243
Al      13.79384778       7.34600562      21.36763560        1       0.03148820      -0.00312706       0.03393868
C        1.52273442       5.93891942      25.60082890        0       0.06402787      -0.03173266       0.01110631
C        2.20121311       4.83465813      26.08158537        0      -0.04414469       0.02430781      -0.01781802
C        1.51884346       3.59393707      26.05629883        0      -0.04085980       0.08466697      -0.03281903
N        1.88492903       2.35250159      26.45535354        0       0.00975276      -0.02128918       0.00522017
N        0.80981890       1.60926037      26.16755891        0       0.02711581      -0.00458767       0.01524210
N       -0.23961244       2.23045079      25.60980958        0       0.00481916       0.01152342       0.00663571
C        0.17819555       3.51867748      25.52667495        0      -0.03927213      -0.01074711      -0.00333016
C       -0.49205294       4.66396373      25.03311068        0      -0.04903633      -0.11402781      -0.07475366
C        0.19838979       5.85996075      25.07179539        0       0.01910947       0.02005333       0.01508374
H        2.01357338       6.91155140      25.60175137        0       0.02269863       0.05835612      -0.00924151
H        3.21832809       4.91958788      26.46922477        0      -0.06699014      -0.09369015      -0.00329146
H        0.80115780       0.60533124      26.35236675        0      -0.03039306       0.06418833      -0.04403363
H       -1.49137971       4.57560621      24.59500317        0       0.09176198       0.01259743       0.07079091
H       -0.25436888       6.77320121      24.68167952        0      -0.04872630       0.02628819      -0.03484591
