110
Lattice="11.45512985522207 0.0 0.0 5.727564927611035 9.92043345827187 0.0 0.0 0.0 31.691342951089922" Properties=species:S:1:pos:R:3:tags:I:1:forces:R:3 energy=-461.89276123046875 free_energy=-461.89276123046875 stress="0.004534960724413395 1.701992005109787e-06 -3.7671998143196106e-07 1.701992005109787e-06 0.004596930928528309 7.925555109977722e-07 -3.7671998143196106e-07 7.925555109977722e-07 0.004598283674567938" pbc="T T F"
Al       1.44019792       0.84183950      10.01919957        6       0.00031800       0.00010714       0.00022381
Al       4.30280058       0.84248475      10.02779875        6       0.00029669      -0.00003253      -0.00040254
Al       7.16839042       0.84367003      10.02966274        6       0.00039194       0.00024804       0.00027321
Al      10.02986242       0.84693727      10.02103355        6       0.00035121       0.00028877       0.00071491
Al       2.86981339       3.32359558      10.01474969        6       0.00029084       0.00035935       0.00035257
Al       5.73360733       3.32232072      10.01694082        6       0.00046162       0.00029596       0.00082982
Al       8.59766136       3.32492272      10.01626196        6       0.00046009       0.00043723       0.00104829
Al      11.46322298       3.32337333      10.01513718        6       0.00037069       0.00042303       0.00090165
Al       4.29891814       5.80385691      10.02429243        6       0.00037368       0.00035804       0.00069050
Al       7.16288012       5.80262771      10.02485419        6       0.00050496       0.00038666       0.00093727
Al      10.02876619       5.80409351      10.02894181        6       0.00033835       0.00026209       0.00076474
Al      12.89281913       5.80702780      10.03328611        6       0.00023520       0.00024137       0.00046786
Al       5.73048792       8.28467139      10.02591256        6       0.00040524       0.00034317       0.00074441
Al       8.59715512       8.28190038      10.03047198        6       0.00036391       0.00009793       0.00046533
Al      11.46160993       8.28535618      10.03690520        6       0.00021504       0.00014507       0.00029313
Al      14.32419244       8.28669489      10.03325685        6       0.00036209       0.00034478       0.00056557
Al       0.03970650       1.65782358      12.37950594        5       0.00005070       0.00040112       0.00411207
Al       2.90248245       1.65667196      12.38008766        5      -0.00003229       0.00060124       0.00334471
Al       5.76852871       1.65644318      12.38776648        5      -0.00034677       0.00091836      -0.00036374
Al       8.62909136       1.65768324      12.38840543        5       0.00315246      -0.00035309      -0.00018154
Al       1.47387524       4.14188404      12.38522793        5      -0.00102529      -0.00108371       0.00328076
Al       4.33523554       4.14226991      12.38237358        5       0.00050913      -0.00174021       0.00068952
Al       7.19824712       4.13880527      12.38534363        5       0.00279762      -0.00016974       0.00216657
Al      10.06384262       4.13929478      12.38501695        5       0.00119533       0.00009443       0.00282848
Al       2.90339729       6.62239629      12.39806550        5       0.00026412       0.00107991       0.00248281
Al       5.76407180       6.62071082      12.38918614        5       0.00182962       0.00170145       0.00352412
Al       8.63113845       6.61973593      12.39425562        5       0.00158565       0.00036777       0.00248696
Al      11.49642483       6.62304935      12.40122845        5      -0.00148440      -0.00019758       0.00282456
Al       4.33433200       9.09825029      12.39629665        5       0.00060651       0.00339284       0.00151988
Al       7.19796004       9.09830007      12.39187322        5       0.00001492       0.00167145       0.00017056
Al      10.06268930       9.09798529      12.40232048        5      -0.00040818       0.00021073      -0.00261802
Al      12.92594380       9.09811734      12.40362487        5       0.00162996       0.00177594      -0.00231944
Al       0.04796615       0.00430335      14.68192308        4       0.00140663      -0.00003145      -0.00344941
Al       2.90926469       0.00307318      14.67792670        4       0.00032441       0.00004133       0.00127579
Al       5.77505677      -0.00019392      14.68425108        4       0.00055314       0.00010550       0.00194856
Al       8.63641152       0.00185125      14.68638671        4       0.00179504      -0.00053844      -0.00093813
Al       1.47934079       2.47486649      14.66159012        4       0.00074092       0.00103426       0.00252115
Al       4.34132188       2.47628924      14.65357004        4       0.00057591       0.00054858       0.00321128
Al       7.20864640       2.47243569      14.67099745        4       0.00072464       0.00057351      -0.00039879
Al      10.07282824       2.47399133      14.66441530        4       0.00114242       0.00084935       0.00157067
Al       2.91509524       4.96375580      14.66931623        4      -0.00032639      -0.00040667       0.00153417
Al       5.77652415       4.96227506      14.66245091        4       0.00046024       0.00008418       0.00125798
Al       8.64568607       4.96269054      14.67389534        4       0.00204211      -0.00171259      -0.00815588
Al      11.50640149       4.96508547      14.67269488        4       0.00090031      -0.00011977       0.00167304
Al       4.34522302       7.45232921      14.68544080        4       0.00049173      -0.00113182      -0.00040392
Al       7.20784934       7.44611245      14.67428086        4       0.00078430       0.00052846       0.00131086
Al      10.07139980       7.44980439      14.69472069        4       0.00212014      -0.00142807      -0.00310731
Al      12.93694651       7.45041662      14.69261586        4       0.00013637      -0.00077351       0.00086947
Al       1.48491519       0.81009279      16.98873910        3       0.00198696       0.00034478      -0.00521082
Al       4.34056123       0.80246327      16.97086665        3       0.00081452       0.00124201       0.00203121
Al       7.21578721       0.79337528      16.98439550        3      -0.00028245       0.00021480       0.00140864
Al      10.07839975       0.80751518      16.98140345        3      -0.00045078      -0.00080962      -0.00576925
Al       2.91530192       3.28550913      16.96352748        3      -0.00042581      -0.00135436       0.00106243
Al       5.78006331       3.28338573      16.94503166        3       0.00011893      -0.00047591       0.00133057
Al       8.65847886       3.28443663      16.95125172        3      -0.00127001      -0.00032361       0.00068769
Al      11.51172539       3.29201152      16.96567922        3       0.00200540      -0.00096852      -0.00262410
Al       4.34562080       5.77536074      16.95937565        3       0.00024235       0.00114281       0.00109252
Al       7.22163186       5.78012339      16.94563628        3      -0.00086367       0.00016110       0.00201250
Al      10.08924679       5.78458678      16.97726509        3       0.00100122      -0.00051079       0.00015608
Al      12.94155189       5.78280009      16.97980494        3       0.00027198      -0.00201176       0.00133267
Al       5.79009298       8.27572473      16.97758812        3       0.00008994      -0.00042833       0.00271249
Al       8.64346125       8.26489774      16.98676065        3      -0.00022581       0.00064674       0.00067241
Al      11.51304929       8.25920749      17.01260817        3      -0.00031569      -0.00160933      -0.00183741
Al      14.36908326       8.25814249      16.99911904        3       0.00132919      -0.00071750       0.00024401
Al       0.05792405       1.63667862      19.23294304        2      -0.00227941      -0.00007926       0.00118006
Al       2.91116970       1.62501733      19.26387679        2      -0.00057677      -0.00010188       0.00020237
Al       5.76923027       1.63762822      19.20777008        2       0.00073738      -0.00008198      -0.00002195
Al       8.64125222       1.63801753      19.22007963        2       0.00169759       0.00060507       0.00058888
Al       1.48535340       4.11746784      19.23182111        2       0.00033954       0.00088903      -0.00702939
Al       4.35694115       4.12482826      19.19947762        2      -0.00025849       0.00146120      -0.00520923
Al       7.22315661       4.12624476      19.18532076        2      -0.00126811      -0.00125964       0.00327754
Al      10.07753396       4.12572754      19.20919269        2       0.00222024      -0.00184641       0.00316288
Al       2.91411863       6.59771081      19.25001900        2       0.00122966      -0.00183982      -0.00249494
Al       5.79071806       6.61227311      19.18378879        2      -0.00101527      -0.00024524       0.00521236
Al       8.64190602       6.61088923      19.20636056        2       0.00219206       0.00053930       0.00478246
Al      11.53214855       6.59911309      19.28220809        2      -0.00321022      -0.00191427      -0.00130243
Al       4.35603722       9.09108856      19.25985848        2       0.00005502       0.00075663      -0.00019894
Al       7.21678027       9.11008517      19.32029854        2       0.00019197       0.00114519      -0.00020913
Al      10.06103531       9.10112683      19.26355805        2       0.00103550      -0.00428113       0.00242167
Al      12.94373371       9.04550212      19.33650348        2      -0.00028349       0.00571274      -0.00264323
Al      -0.11095605      -0.02276286      21.77507026        1       0.00345852       0.00119662      -0.00008767
Al       2.76909634      -0.00194050      21.96759983        1       0.00481318      -0.00028001      -0.01158649
Al       5.68144318       0.03029889      21.59165104        1       0.00284581      -0.00254755      -0.00326306
Al       8.51745691       0.01080927      21.66981480        1       0.00260392       0.00043991       0.00015908
Al       1.45924205       2.46426295      21.56937601        1      -0.00270226       0.00395286      -0.00214334
Al       4.38809245       2.50683965      21.50511837        1      -0.00175047      -0.00067208      -0.00185508
Al       7.21577429       2.53321241      21.52473326        1      -0.00007977      -0.00216957      -0.00136994
Al      10.03462654       2.49579024      21.56870036        1       0.00146819       0.00091668      -0.00394114
Al       2.92484664       4.96597574      21.53790751        1       0.00218044      -0.00245301      -0.00052503
Al       5.81629747       4.96562895      21.49269258        1      -0.00203492      -0.00141302       0.00342688
Al       8.61960645       4.98079964      21.51122491        1       0.00277433       0.00019922       0.00101721
Al      11.47774884       4.95482396      21.60178447        1      -0.00317501      -0.00023872      -0.00651618
Al       4.29622283       7.43071349      21.53343298        1       0.00165179      -0.00240531       0.00163857
Al       7.17054281       7.41310260      21.53549694        1      -0.00022376       0.00112127       0.00053598
Al      10.00497506       7.45321729      21.57962958        1       0.00230159      -0.00140862       0.00068838
Al      12.82560858       7.45465891      21.98235271        1       0.00253390      -0.00131367      -0.01420442
C        5.04172845       5.50394951      24.83975191        0       0.00115662      -0.00525874       0.01792096
C        6.31160622       6.05272293      24.92248100        0      -0.00306209       0.00890491      -0.01126526
C        7.40834508       5.16153035      24.95646595        0       0.01058145      -0.00750437       0.00229562
N        8.75041623       5.39147853      24.96699149        0      -0.00730506      -0.00321568      -0.00145349
N        9.27173414       4.15412553      24.98126058        0      -0.00669134      -0.00384196       0.00304266
N        8.41596252       3.12273757      24.90796437        0      -0.01854205      -0.00510707      -0.00273705
C        7.20281156       3.73372492      24.91101457        0      -0.01164950       0.00164846       0.00158962
C        5.89847025       3.19564565      24.81518419        0      -0.01030572       0.00644929       0.01243457
C        4.84004146       4.09064239      24.79458324        0      -0.01507218       0.00001025      -0.00649976
H        4.16629973       6.15517208      24.79460964        0       0.00071566      -0.00497869      -0.01920543
H        6.47777194       7.13029526      24.90642652        0       0.00952543       0.00507603       0.00527042
H       10.26785805       3.99317130      24.81626838        0       0.00769500       0.02458193       0.00377872
H        5.74352612       2.11976498      24.71799337        0      -0.00040606      -0.00384293       0.00040304
H        3.81831279       3.72193239      24.68782805        0      -0.00808975      -0.01045461      -0.00210097
