110
Lattice="11.45512985522207 0.0 0.0 5.727564927611035 9.92043345827187 0.0 0.0 0.0 31.691342951089922" Properties=species:S:1:pos:R:3:tags:I:1:forces:R:3 energy=-461.69232177734375 free_energy=-461.69232177734375 stress="0.0032856666948646307 1.727137714624405e-06 -5.252659320831299e-07 1.727137714624405e-06 0.0033674633596092463 -4.0046870708465576e-08 -5.252659320831299e-07 -4.0046870708465576e-08 0.003270967397838831" pbc="T T F"
Al       1.49460709       0.87296630      10.01070829        6       0.00178632       0.00106317       0.00051025
Al       4.35361514       0.87428430      10.02457082        6       0.00188690       0.00105572      -0.00038508
Al       7.22192811       0.88591558      10.04630079        6       0.00179731       0.00026440      -0.00318937
Al      10.08269173       0.89405383      10.02884162        6       0.00222501       0.00002560      -0.00234496
Al       2.92076557       3.36523459      10.02113599        6       0.00313387      -0.00141171      -0.00402418
Al       5.78659688       3.36132757      10.03602409        6       0.00180615      -0.00030673      -0.00314475
Al       8.65114892       3.37204923      10.02828712        6       0.00190151      -0.00040339      -0.00287450
Al      11.52074909       3.36713420      10.02071007        6       0.00217149      -0.00044819      -0.00269313
Al       4.34510845       5.84808373      10.05574290        6       0.00324499      -0.00140642      -0.00595802
Al       7.20793965       5.84666974      10.05393432        6       0.00242814      -0.00039348      -0.00433628
Al      10.07834573       5.84304854      10.04214368        6       0.00206417       0.00008295      -0.00261323
Al      12.94112604       5.85229068      10.06193173        6       0.00334423      -0.00187771      -0.00882810
Al       5.77586813       8.32730226      10.04262557        6       0.00271400       0.00010747      -0.00219026
Al       8.64503929       8.31267562      10.03005626        6       0.00177734       0.00103359       0.00050416
Al      11.50891228       8.32542335      10.05324548        6       0.00204971       0.00065881      -0.00195446
Al      14.37415434       8.33298672      10.06174176        6       0.00247919      -0.00015953      -0.00460709
Al       0.15057560       1.69929673      12.37274015        5      -0.00364071      -0.01073101      -0.01185588
Al       3.01542107       1.69595830      12.37992196        5      -0.00635778      -0.00790706      -0.00821852
Al       5.86561156       1.69184554      12.38824701        5       0.00107292      -0.00112917       0.00129474
Al       8.72295673       1.69342886      12.38218561        5       0.01407196      -0.00583810      -0.00663412
Al       1.58723374       4.17454922      12.37667293        5      -0.00939873      -0.00294573       0.01174518
Al       4.43823430       4.17179812      12.39274530        5       0.00268195      -0.00133513       0.00063923
Al       7.29340064       4.17134678      12.38403806        5       0.00526181       0.00094169       0.00576165
Al      10.16442483       4.17578353      12.37625435        5       0.00137175      -0.00229139       0.00350387
Al       3.00869144       6.65286176      12.40622425        5      -0.00004932       0.00182103       0.00555235
Al       5.86876619       6.65308801      12.40037136        5       0.00345811       0.00309912       0.00428975
Al       8.73324780       6.65672922      12.39870052        5       0.00208944       0.00032641       0.00069535
Al      11.60172089       6.65769258      12.40277705        5      -0.00872318      -0.00125058       0.00697513
Al       4.43759897       9.12782701      12.39744237        5       0.00667901       0.01253721      -0.01431295
Al       7.30944658       9.13858435      12.39371993        5      -0.00115636      -0.00283453      -0.02180082
Al      10.16767156       9.13829982      12.40633538        5      -0.00622963      -0.00637259      -0.01600309
Al      13.02267485       9.13539314      12.40826262        5       0.00363240       0.00051772      -0.00592625
Al       0.19333248       0.00099809      14.65765016        4      -0.00994138       0.00783611       0.00931684
Al       3.04080864       0.00780758      14.67888645        4       0.00056391       0.00131967       0.00248394
Al       5.89591052       0.00323972      14.68683714        4       0.00170061       0.00103660      -0.00164870
Al       8.78188074      -0.00635850      14.66443155        4      -0.00894905       0.01103867       0.00054795
Al       1.60738340       2.47457608      14.64866555        4      -0.00183223       0.00253358       0.01042847
Al       4.46516315       2.47989234      14.66674457        4       0.00245061       0.00054687       0.00072324
Al       7.33805556       2.48412833      14.65868016        4      -0.00033183      -0.00073107      -0.00132440
Al      10.20441394       2.47824758      14.63688474        4      -0.00637090      -0.00121887       0.01466650
Al       3.03516871       4.95567845      14.67181382        4       0.00124676       0.00159573       0.00100107
Al       5.90665698       4.96717885      14.67132146        4       0.00114499       0.00087782      -0.00040966
Al       8.77111756       4.96837959      14.66856657        4      -0.00963316      -0.00279626      -0.01324994
Al      11.62216316       4.95000318      14.65874286        4       0.00233852       0.00272624       0.00306489
Al       4.48286278       7.45110450      14.68453862        4      -0.00253565      -0.00038633      -0.00863973
Al       7.34736029       7.46397505      14.68148612        4      -0.01080232      -0.01456615      -0.00983328
Al      10.20025596       7.45283169      14.68878278        4      -0.00069524      -0.00156942      -0.00092557
Al      13.06143341       7.45007830      14.68112388        4       0.00000859      -0.00047666       0.00136554
Al       1.60993576       0.77759165      16.99619340        3      -0.00244465       0.00955910      -0.01607071
Al       4.46107628       0.77195402      16.98501225        3      -0.00021586       0.00269926      -0.00602368
Al       7.34292047       0.77702455      16.93923451        3       0.00017967       0.00387911       0.00348397
Al      10.22339213       0.77159590      16.95290002        3      -0.01594105       0.01494301      -0.00248959
Al       3.04299140       3.24160134      16.95337576        3      -0.00165187       0.00327646       0.00147389
Al       5.91188035       3.26040818      16.94445522        3      -0.00490060       0.00112660      -0.00324447
Al       8.76788311       3.26750963      16.94095010        3       0.00528425      -0.00419575      -0.00426944
Al      11.62210189       3.24589777      16.95090235        3       0.00758615       0.00427919      -0.00191811
Al       4.48321040       5.76999420      16.94274694        3      -0.00927937      -0.00838894       0.00083997
Al       7.34092825       5.76875307      16.96670664        3      -0.00909759      -0.00465810      -0.02188684
Al      10.18058793       5.74805783      16.96538018        3       0.01944301       0.00510916      -0.00902121
Al      13.05840369       5.74958104      16.94568515        3      -0.00215454      -0.00288525       0.00046539
Al       5.92766697       8.24905608      16.97956951        3      -0.01357735      -0.00460641       0.00296060
Al       8.75997252       8.23468939      16.99694083        3       0.00380318       0.00338654      -0.00026046
Al      11.61988270       8.22314235      16.99363106        3      -0.00071484       0.00244627      -0.02015452
Al      14.50459142       8.23866464      16.96325886        3       0.00148395       0.00067319       0.00229294
Al       0.12947480       1.59036035      19.27807540        2       0.01161958       0.00243699      -0.00311615
Al       2.99051689       1.58748104      19.27640672        2       0.00158110       0.00001751      -0.01241655
Al       5.87992418       1.60350192      19.19705981        2       0.00061765       0.00417172       0.00450097
Al       8.76297201       1.60694282      19.19009291        2      -0.00646976       0.00001997       0.02167205
Al       1.60415410       4.08816403      19.19611629        2      -0.01351182      -0.00610458       0.00028616
Al       4.46820777       4.11625909      19.18025543        2      -0.00045760      -0.00617800       0.00111400
Al       7.32213126       4.10972965      19.18279226        2       0.00280094      -0.00516472       0.01379053
Al      10.19183347       4.08650100      19.19788343        2      -0.00043170       0.00397786       0.01225266
Al       3.00765269       6.56873716      19.19740535        2       0.00479380       0.01046002       0.00010695
Al       5.86869640       6.57061525      19.21796091        2       0.00747592       0.00453673      -0.00259943
Al       8.74234288       6.56222000      19.22939987        2       0.00392813       0.00561488       0.01886054
Al      11.60793613       6.56370789      19.23804728        2      -0.00933366      -0.00117933       0.00526690
Al       4.46897608       9.06759013      19.26057981        2      -0.00290014      -0.00252065       0.01394203
Al       7.31221923       9.06708124      19.31158166        2      -0.00033600      -0.00676187       0.00183656
Al      10.16329449       9.04269322      19.29403894        2       0.00153024       0.00014399       0.01470837
Al      13.05499586       9.06561086      19.20985197        2       0.00195800      -0.00012700       0.02781026
Al      -0.07734021      -0.06539145      21.88882063        1       0.01013307       0.00068255      -0.01232443
Al       2.86023210      -0.00760747      21.76578099        1       0.00379715      -0.00271469      -0.01016106
Al       5.75444158       0.00759408      21.59290052        1       0.00193751      -0.00034727      -0.00059423
Al       8.56565157      -0.03988387      21.70062348        1      -0.00195211       0.00221154       0.00597181
Al       1.51386816       2.49157762      21.54268435        1       0.00449520      -0.01281197       0.01223898
Al       4.40672658       2.49067358      21.43779623        1       0.01003667      -0.00414746       0.00460412
Al       7.28457206       2.45915869      21.44976774        1      -0.00124397       0.00481629       0.01995903
Al      10.10619875       2.47384792      21.53920956        1       0.00387082      -0.00095149       0.01304003
Al       2.96499840       4.91183703      21.46103199        1       0.00676487       0.01195126       0.00440017
Al       5.83642244       4.91165428      21.55038414        1       0.00699628       0.00587116      -0.00963788
Al       8.67307855       4.93275028      21.56956767        1       0.00059201       0.00480269      -0.01090211
Al      11.54794038       4.96795363      21.57305294        1      -0.01216965      -0.00734875       0.00213769
Al       4.33598142       7.33645621      21.53702797        1       0.01149500       0.01793525      -0.00776145
Al       7.17579086       7.39093044      21.59323188        1       0.01246345       0.00018577      -0.01239685
Al      10.04129346       7.41997022      21.72064034        1      -0.00062738       0.00129124      -0.00134173
Al      12.88831154       7.45338516      21.54478881        1       0.02800009      -0.00876546       0.01636477
C        4.52322859       5.69828454      24.91893995        0       0.00964963       0.00226386      -0.00244448
C        5.82979122       6.07559158      25.17623621        0       0.00865790       0.00995105       0.00109166
C        6.82271162       5.06696615      25.15437156        0       0.00174894       0.00285406      -0.00802430
N        8.17548850       5.13538762      25.27942526        0       0.00474327      -0.00253004       0.00144291
N        8.56730669       3.86772606      25.10429671        0      -0.03441348       0.00018569       0.00563137
N        7.61634124       2.95717890      24.82235571        0      -0.00925093       0.02246263       0.00707327
C        6.47824213       3.70009987      24.86179255        0      -0.01884568      -0.02138969       0.00115960
C        5.13263235       3.33262898      24.62679206        0       0.00419208       0.02352986       0.03189769
C        4.17749875       4.33948068      24.65532268        0      -0.00945257      -0.04051001       0.00147041
H        3.73305440       6.45002028      24.85612495        0       0.00614779      -0.00357011       0.00836456
H        6.10826072       7.11305757      25.36960560        0      -0.00144743      -0.01442599      -0.02381067
H        9.55608650       3.62152175      25.03239503        0      -0.00261200      -0.00679593      -0.00433814
H        4.86809326       2.29176765      24.43894874        0      -0.00483826      -0.02697070      -0.00529714
H        3.13888173       4.08037511      24.43521195        0      -0.01946732       0.03004253       0.01284400
