110
Lattice="11.45512985522207 0.0 0.0 5.727564927611035 9.92043345827187 0.0 0.0 0.0 31.691342951089922" Properties=species:S:1:pos:R:3:tags:I:1:forces:R:3 energy=-462.0633544921875 free_energy=-462.0633544921875 stress="0.009146368131041527 -7.683411240577698e-08 2.360902726650238e-07 -7.683411240577698e-08 0.009192677214741707 2.2440217435359955e-06 2.360902726650238e-07 2.2440217435359955e-06 0.009417221881449223" pbc="T T F"
Al       2.45216134       1.07283617       9.73690729        6       0.00053336      -0.00197576       0.00453399
Al       5.30812270       1.08478556       9.77583732        6       0.00123599      -0.00338736       0.00369862
Al       8.17889514       1.08881493       9.77581728        6       0.00010935      -0.00258113       0.00405735
Al      11.04004228       1.08818281       9.78650312        6       0.00057647      -0.00224634       0.00421657
Al       3.87929698       3.56020366       9.75894196        6       0.00077797      -0.00195608       0.00426328
Al       6.73712393       3.57061324       9.77983137        6       0.00080170      -0.00239883       0.00428709
Al       9.60557569       3.56480446       9.76828052        6       0.00071722      -0.00192046       0.00437382
Al      12.48684196       3.55102853       9.74817598        6      -0.00000319      -0.00158116       0.00452456
Al       5.30963108       6.04838146       9.78828115        6       0.00078296      -0.00252002       0.00408666
Al       8.17540506       6.04784628       9.76652039        6       0.00060573      -0.00229967       0.00451512
Al      11.04757936       6.03237312       9.75016235        6       0.00043449      -0.00167745       0.00433948
Al      13.91367171       6.03850897       9.78144285        6       0.00012489      -0.00175996       0.00379120
Al       6.73841252       8.52926036       9.78606172        6       0.00104944      -0.00275728       0.00439527
Al       9.60969293       8.51599790       9.74128736        6       0.00071227      -0.00202305       0.00457953
Al      12.47976451       8.52022465       9.78037616        6       0.00013231      -0.00198843       0.00368319
Al      15.34201642       8.52934086       9.77612945        6       0.00020930      -0.00244385       0.00425379
Al       1.08276135       1.81729498      12.22083901        5      -0.00063397       0.00240755       0.00172640
Al       3.94316275       1.82293171      12.21028385        5      -0.00113776       0.00001886       0.00507432
Al       6.80499044       1.83642795      12.22397606        5      -0.00009232      -0.00471139      -0.00300897
Al       9.66724654       1.82987593      12.22997021        5      -0.00039100      -0.00226326      -0.00592534
Al       2.50717074       4.29870908      12.22131813        5       0.00113839       0.00063004       0.00152847
Al       5.36529410       4.31400191      12.24374572        5       0.00289183      -0.00319314      -0.01104488
Al       8.22613132       4.31974736      12.22521725        5       0.00283697      -0.00445109      -0.00097463
Al      11.09794729       4.30208219      12.21595232        5      -0.00024690      -0.00015085      -0.00211968
Al       3.93832018       6.79020602      12.22782154        5       0.00184632      -0.00235016       0.00515708
Al       6.80734190       6.79268368      12.23149113        5      -0.00211388      -0.00098100       0.00591919
Al       9.66660084       6.79583222      12.21184856        5      -0.00103487      -0.00360864       0.00437017
Al      12.52055872       6.78139129      12.19877419        5       0.00114089      -0.00067442       0.00817133
Al       5.37526751       9.27292888      12.24613576        5      -0.00145712      -0.00541775      -0.00566064
Al       8.23423794       9.26822958      12.21816240        5       0.00053895      -0.00113156       0.00717290
Al      11.09508556       9.27104160      12.20698124        5       0.00089565      -0.00182674       0.00787699
Al      13.96130839       9.26659891      12.22438501        5       0.00119392      -0.00049261       0.00336780
Al       1.08925669       0.07817521      14.58454713        4       0.01208834       0.00677647      -0.00984855
Al       3.96071430       0.08724967      14.54640427        4       0.00044634      -0.00083429       0.00392200
Al       6.83351189       0.09353286      14.54757991        4      -0.00155848      -0.00109060       0.00366202
Al       9.68678683       0.08620220      14.56057177        4      -0.00026777      -0.00107517       0.00393486
Al       2.54348696       2.56307814      14.54674301        4       0.00012992      -0.00128934       0.00367881
Al       5.39924967       2.57423962      14.54321057        4      -0.00188653      -0.00198284       0.00709366
Al       8.25814911       2.58293420      14.54468651        4      -0.00291549      -0.00300968       0.00508596
Al      11.11684600       2.56579426      14.54798730        4       0.00091790      -0.00142975       0.00238152
Al       3.96552373       5.05074795      14.57255497        4       0.00007693      -0.00132563       0.00355282
Al       6.81988734       5.05800352      14.58109924        4      -0.00189111      -0.00389551      -0.00334205
Al       9.67519295       5.06104684      14.54421167        4       0.00197339      -0.00205748       0.00164898
Al      12.55364787       5.04718884      14.54173271        4       0.00057491      -0.00174796       0.00094072
Al       5.39422172       7.52698912      14.57881321        4      -0.00004198      -0.00127264       0.00341123
Al       8.24986320       7.53384783      14.57657222        4       0.00047388      -0.00082680      -0.01372303
Al      11.11888070       7.53562267      14.54478080        4       0.00134544      -0.00043034       0.00164460
Al      13.98359015       7.51742097      14.54010235        4      -0.00054770       0.00267701       0.00671037
Al       2.54681934       0.82389879      16.92360317        3       0.00012251      -0.00267914       0.00258888
Al       5.39778529       0.83592257      16.90201618        3      -0.00091592      -0.00267649       0.00305127
Al       8.25026919       0.83348148      16.90349077        3       0.00053284      -0.00341773       0.00164900
Al      11.12539402       0.80951346      16.91228177        3      -0.00015433      -0.00105341       0.00300446
Al       3.97315601       3.29826135      16.92665881        3       0.00455277      -0.00339463      -0.00495861
Al       6.81184574       3.29383718      16.92257073        3      -0.00000170      -0.00103731      -0.00103795
Al       9.68023887       3.30073742      16.87629374        3       0.00021713      -0.00136770       0.00213367
Al      12.56691105       3.27849346      16.85698593        3      -0.00162858       0.00155138       0.00444413
Al       5.40214285       5.77754753      16.95114486        3      -0.02765871      -0.00968733      -0.02520627
Al       8.24042270       5.78698594      16.90653784        3       0.00638059      -0.00881126      -0.01685905
Al      11.13665956       5.79416427      16.84207628        3      -0.01270194      -0.00462091       0.00817822
Al      13.99499569       5.78286776      16.89512792        3       0.01367035      -0.00294379      -0.01423244
Al       6.82856290       8.25836424      16.94751001        3       0.00025558      -0.00117415       0.00362791
Al       9.68981096       8.27667982      16.88539623        3       0.00954287       0.00318818       0.00810457
Al      12.57629231       8.28224784      16.88962778        3      -0.01319198       0.00030490      -0.00131997
Al      15.42670851       8.27366472      16.91047216        3      -0.01813713      -0.01857282      -0.00230964
Al       1.08921549       1.58724695      19.22681532        2       0.00133840       0.00008060      -0.00592942
Al       3.95996761       1.58989088      19.28980805        2      -0.00113176      -0.00325805       0.00679194
Al       6.78314958       1.56110099      19.27521980        2      -0.00278901       0.00068240      -0.00539135
Al       9.65404517       1.58592971      19.20097146        2       0.00580082       0.00439359      -0.01186488
Al       2.51061070       4.05155625      19.18537951        2       0.00249201       0.00296101      -0.00409553
Al       5.39592546       4.02707361      19.33501065        2       0.00547724       0.00503876      -0.01176286
Al       8.21941010       4.07899939      19.20241263        2       0.00392169      -0.00331835      -0.00040297
Al      11.11852888       4.07570214      19.12070223        2      -0.00914726       0.00399374       0.02891415
Al       3.96055509       6.54881398      19.26415370        2      -0.00060405      -0.00304299      -0.00728743
Al       6.78087270       6.51099062      19.29048390        2      -0.00234109       0.00245197      -0.01008409
Al       9.67038956       6.57072834      19.14402976        2       0.00122146      -0.00748138      -0.00503304
Al      12.55660164       6.57243560      19.13995331        2      -0.01178954      -0.00536293       0.00407213
Al       5.34188606       9.00309170      19.27281311        2       0.02670722       0.01094327      -0.00573711
Al       8.26536936       9.02747628      19.27346486        2      -0.00300929       0.00490610      -0.00839803
Al      11.12609869       9.07770839      19.23414634        2      -0.00354087      -0.00230365      -0.01115289
Al      13.98342822       9.03481622      19.27430243        2      -0.00753376       0.00338583      -0.01909979
Al       0.93226578      -0.15428610      21.58493174        1       0.00945440       0.02114120       0.02862510
Al       3.77514793      -0.23847332      21.96834530        1      -0.00262751       0.00320834       0.00518315
Al       6.77387672      -0.13282561      21.90498833        1      -0.00338622      -0.00484115       0.00059320
Al       9.58351669      -0.06326031      21.65233399        1       0.00729750      -0.00113506      -0.01033108
Al       2.36896466       2.39507984      21.70204853        1      -0.00183588       0.00152358       0.00301426
Al       5.30363353       2.41702495      21.91380346        1      -0.00545153       0.00209277       0.00665356
Al       8.20720466       2.40336278      21.50423183        1       0.00671542       0.00056889       0.01593970
Al      11.02688743       2.38978470      21.52786428        1       0.00483036       0.01712008      -0.00547799
Al       3.83927703       4.84293165      21.53520958        1       0.00288601       0.00345943       0.00165291
Al       6.82415084       4.83774393      21.90240043        1      -0.00247852       0.00409260      -0.02192852
Al       9.67839030       4.88534120      21.44602992        1       0.00362312      -0.00764427      -0.00835105
Al      12.46416393       4.91309929      21.47331278        1       0.00123390      -0.00856147       0.00215698
Al       5.25765613       7.26685344      21.95266721        1      -0.00213523       0.00057075      -0.00073125
Al       8.16945691       7.27077077      21.50877264        1       0.00409642       0.00792651       0.01004563
Al      11.07198364       7.36711282      21.40532722        1      -0.00038083      -0.00361475       0.00619821
Al      13.88828610       7.33110147      21.54083270        1       0.00755142       0.00064633      -0.00668311
C        0.96634482       5.50080053      25.33675910        0       0.01196190      -0.02870189       0.00224763
C        1.15251713       4.23492809      25.86176847        0      -0.02514300       0.01328155      -0.02146360
C        0.02565339       3.38320636      25.92667628        0       0.00642054       0.00986762       0.00268752
N       -0.10212288       2.09511362      26.33954347        0       0.01501283       0.01131488       0.00447377
N       -1.39587667       1.83640852      26.13686704        0      -0.01052525      -0.01127389      -0.01228137
N       -2.14817162       2.81569203      25.61188102        0      -0.01433185       0.00840608       0.00381923
C       -1.26790425       3.83753374      25.48069257        0      -0.03074650       0.01936631      -0.01977536
C       -1.44005534       5.14537002      24.97365278        0       0.02801466       0.01705404       0.00993855
C       -0.31730164       5.95101436      24.89835956        0       0.00537000       0.04871202      -0.00700504
H        1.82214015       6.16768933      25.20746641        0       0.00132513       0.01503930      -0.00193754
H        2.12360762       3.88771914      26.21192290        0       0.00965176      -0.00938760      -0.00347987
H       -1.78359837       0.90097382      26.26457239        0       0.00450008       0.01379130       0.02104690
H       -2.41912186       5.51180216      24.66573278        0      -0.02395505      -0.02404371      -0.01982053
H       -0.40351176       6.96072891      24.48451619        0       0.00400374      -0.00112343       0.00061243
