110
Lattice="11.45512985522207 0.0 0.0 5.727564927611035 9.92043345827187 0.0 0.0 0.0 31.691342951089922" Properties=species:S:1:pos:R:3:tags:I:1:forces:R:3 energy=-461.6770935058594 free_energy=-461.6770935058594 stress="0.003552457317709923 1.69314444065094e-06 -5.662441253662109e-07 1.69314444065094e-06 0.0036315328907221556 3.534369170665741e-07 -5.662441253662109e-07 3.534369170665741e-07 0.003588129999116063" pbc="T T F"
Al       2.29457675       0.72068882      10.03271086        6      -0.00033630      -0.00011161       0.00078126
Al       5.15767993       0.72440513      10.02213603        6      -0.00071797      -0.00015976       0.00056628
Al       8.02425270       0.72054953      10.02953283        6      -0.00046952      -0.00022981      -0.00081942
Al      10.88934008       0.72407461      10.03043569        6      -0.00030526      -0.00036516      -0.00008724
Al       3.72498474       3.20351300      10.03150483        6      -0.00055590      -0.00018100       0.00062453
Al       6.58792772       3.19787568      10.03441799        6      -0.00043766      -0.00011910      -0.00120709
Al       9.45466782       3.20210528      10.02553670        6      -0.00049646      -0.00019173      -0.00077424
Al      12.31959515       3.20503303      10.02645940        6      -0.00034297      -0.00029175       0.00058085
Al       5.15209069       5.67997116      10.04326464        6      -0.00014994      -0.00084666      -0.00211135
Al       8.01229579       5.68042293      10.04051991        6      -0.00019182      -0.00073073      -0.00245065
Al      10.87948542       5.68418473      10.02670053        6      -0.00025018      -0.00049876      -0.00082507
Al      13.74496657       5.69083806      10.03403398        6      -0.00026002      -0.00120202      -0.00155349
Al       6.58365691       8.16069825      10.03093060        6      -0.00018377      -0.00027572      -0.00017498
Al       9.44796701       8.16184512      10.02340888        6      -0.00035366      -0.00013199       0.00003803
Al      12.31172583       8.16745021      10.01664167        6      -0.00042383      -0.00026004       0.00042083
Al      15.18169281       8.16240965      10.04105384        6      -0.00036958      -0.00050103      -0.00123288
Al       0.90863180       1.52945050      12.39457511        5      -0.00201401       0.00078365      -0.00591293
Al       3.76607972       1.53493799      12.39250908        5      -0.00083606      -0.00056281       0.00502330
Al       6.62477512       1.52852828      12.38747110        5       0.00007101       0.00504566       0.00042143
Al       9.49148076       1.53493740      12.37967245        5       0.00247684      -0.00349536       0.00030775
Al       2.33245096       4.01354166      12.39235302        5       0.00197432      -0.00359336      -0.00152407
Al       5.19975380       4.00892591      12.39333962        5      -0.00178289      -0.00151695       0.00078372
Al       8.06315366       4.01318398      12.38921903        5      -0.00302263      -0.00265432      -0.00579310
Al      10.92440577       4.01654059      12.38074499        5       0.00273409      -0.00508877      -0.00298119
Al       3.76939431       6.48786066      12.39231463        5      -0.00375727       0.00215344       0.00012515
Al       6.63259376       6.48749305      12.39521873        5      -0.00268273       0.00366640      -0.00335233
Al       9.48936188       6.49373745      12.38089326        5       0.00107437       0.00024353       0.00427382
Al      12.35093506       6.49491212      12.37475988        5       0.00018772      -0.00066213       0.00780823
Al       5.20428991       8.96832350      12.39295459        5      -0.00451811       0.00386219      -0.01236162
Al       8.06897851       8.96976343      12.38908282        5      -0.00428334       0.00357141       0.00338063
Al      10.91987036       8.97621685      12.38318160        5      -0.00043788      -0.00070226       0.00294050
Al      13.77826554       8.97275327      12.38281863        5       0.00513470       0.00040310      -0.00106183
Al       0.91825566      -0.14662228      14.66952032        4       0.00015918       0.00656242       0.00700551
Al       3.78087928      -0.12457574      14.68444911        4      -0.00478844      -0.00110830      -0.00572610
Al       6.62734220      -0.11996429      14.66275989        4       0.00440241      -0.00240990      -0.00069211
Al       9.50508853      -0.13634392      14.64916415        4      -0.00112293       0.00338554       0.00479572
Al       2.35399493       2.34663963      14.68822694        4      -0.00668393      -0.00929981      -0.02181706
Al       5.21293781       2.35462035      14.68587759        4      -0.00117055      -0.00329670      -0.01240325
Al       8.07438293       2.35336425      14.65717177        4      -0.00051234      -0.00075730       0.00317843
Al      10.93939677       2.34801413      14.65114888        4      -0.00198122      -0.00148244       0.00577481
Al       3.78494448       4.82170517      14.67317848        4      -0.00197928       0.00174375      -0.00223274
Al       6.64500428       4.82754216      14.66974238        4       0.00047425      -0.00013661       0.00150778
Al       9.50983820       4.83060599      14.65492550        4      -0.00287554      -0.00092540       0.00383991
Al      12.36931902       4.82204468      14.66329530        4      -0.00309515       0.00248610      -0.00736129
Al       5.22109427       7.31016074      14.66948987        4      -0.00229279      -0.00114903       0.00105363
Al       8.07777816       7.31247441      14.67221911        4      -0.00140737      -0.00074042       0.00132940
Al      10.92728271       7.31463064      14.66129908        4       0.00101922      -0.00112582      -0.00450040
Al      13.80128842       7.31277148      14.65101775        4      -0.00128503      -0.00141399       0.00164341
Al       2.33879326       0.67146585      16.99491325        3      -0.00369169      -0.00014913      -0.01070071
Al       5.20357066       0.69681035      16.98152866        3      -0.00380877      -0.00233924      -0.00744620
Al       8.05692929       0.70079906      16.95361616        3       0.00102313       0.00143746      -0.00879954
Al      10.92311334       0.69853276      16.95738008        3       0.00295693      -0.00813792      -0.00699047
Al       3.77766047       3.16180274      16.97799690        3       0.00391647      -0.00290124      -0.00552975
Al       6.63404111       3.16794200      16.98218468        3       0.00144236       0.00293332      -0.00354891
Al       9.48450410       3.16340597      16.95906052        3      -0.00108592       0.00500027      -0.01063926
Al      12.36523161       3.15024125      16.95286854        3      -0.00659501      -0.00079561      -0.01025404
Al       5.22345539       5.63850853      16.95688595        3      -0.00226879       0.00129660       0.00383182
Al       8.06274133       5.64552410      16.96823195        3      -0.00035638      -0.00162468       0.00201548
Al      10.92154973       5.65235971      16.94099252        3      -0.00658730      -0.00439408      -0.00826525
Al      13.78950419       5.63447981      16.93812928        3       0.00578058       0.00693142      -0.00912241
Al       6.64197868       8.11703826      16.98623747        3      -0.00179396       0.00101279       0.00312742
Al       9.48142125       8.13171215      16.96919065        3      -0.00019708       0.00005120       0.00319291
Al      12.35360431       8.12879328      16.93184754        3      -0.00010503       0.00203050       0.00248612
Al      15.23154858       8.13369292      16.93694568        3      -0.00005096      -0.00018282       0.00330156
Al       0.88068558       1.53054986      19.23951324        2       0.00069047      -0.00627250       0.00897957
Al       3.76776744       1.52117606      19.24877407        2      -0.00714136      -0.00330564       0.00145435
Al       6.62743108       1.54621837      19.24635979        2      -0.00131481      -0.00208454       0.00016257
Al       9.47613402       1.54733878      19.22270307        2      -0.00469617      -0.00209967      -0.00251929
Al       2.32685078       4.00049440      19.17364368        2      -0.00301320       0.00140691       0.00486157
Al       5.19724643       4.01795236      19.25802909        2       0.00830242      -0.00244657       0.00788084
Al       8.04356418       4.00379622      19.27805221        2      -0.00060621       0.00240867       0.00442251
Al      10.92327870       4.00762786      19.16176172        2      -0.00028260       0.00452313       0.01294439
Al       3.76302816       6.48522845      19.17119300        2      -0.00015486       0.00439933       0.00140892
Al       6.64353950       6.45882492      19.27772200        2      -0.01243922       0.00074899       0.00740830
Al       9.47690043       6.47493602      19.21934165        2       0.00026754       0.00243211       0.00288313
Al      12.34415186       6.48061273      19.15914384        2       0.00233378       0.00028757       0.00573715
Al       5.18099901       9.00526649      19.22644344        2       0.00376175      -0.00779158       0.00791103
Al       8.02478811       8.97806695      19.31322720        2       0.00834483      -0.00231603       0.00054931
Al      10.91944328       8.96480954      19.20357684        2      -0.00238711       0.00053051       0.00247718
Al      13.77623489       8.99329960      19.16332678        2      -0.00107050      -0.00431828       0.00206874
Al       0.74165335      -0.08824026      21.85384119        1       0.01077128      -0.00404438      -0.01625875
Al       3.66183383      -0.07970697      21.64592300        1       0.00322964      -0.00342269       0.00198690
Al       6.53746528      -0.09959575      21.53774802        1       0.00488436       0.00056233       0.00225435
Al       9.38412290      -0.07902623      21.52173423        1       0.00183600       0.00326826       0.00800952
Al       2.23194018       2.38457673      21.53139458        1       0.00553441       0.00301419       0.00604455
Al       5.10767397       2.38216807      21.58748330        1       0.00815497       0.00336254       0.00986687
Al       7.96803493       2.43371335      21.64913845        1       0.00434983      -0.00532988      -0.00612031
Al      10.84743132       2.42026854      21.51173115        1       0.00727834       0.00036669       0.01232035
Al       3.69146770       4.87736129      21.45468997        1       0.00076466      -0.00361922       0.00201105
Al       6.48297281       4.89882849      21.89794810        1       0.01260919      -0.00457720      -0.01330942
Al       9.47566543       4.86478173      21.53446914        1       0.00082227       0.00446071       0.00879574
Al      12.34675716       4.87282612      21.52497814        1      -0.00440829       0.00040358      -0.00390915
Al       5.13498241       7.35657746      21.49546083        1      -0.00011204       0.00045229       0.01315691
Al       8.01587268       7.33618227      21.60882597        1       0.00546685      -0.00192485      -0.00215096
Al      10.94026582       7.32810568      21.49577296        1      -0.00245083      -0.00247004       0.00120383
Al      13.75747714       7.36114650      21.41574813        1      -0.00147158      -0.00668450      -0.00050409
C        2.39268174       6.44692254      24.63630183        0      -0.00505630       0.00803387       0.00926716
C        2.37451377       5.06309852      24.72488349        0      -0.02108522       0.01075985       0.00496263
C        1.13195331       4.44298215      24.99769678        0      -0.02679815      -0.00188956      -0.00439820
N        0.81759594       3.13458802      25.16879918        0      -0.00906919       0.01492047       0.01036812
N       -0.50257327       3.16742011      25.41065280        0       0.02251456       0.02190238      -0.00160413
N       -1.10217186       4.36787695      25.38012344        0       0.00988500       0.00159115      -0.02464625
C       -0.08124418       5.22049086      25.10736048        0       0.00743791      -0.01698525       0.01950273
C       -0.03868438       6.62681362      24.96713871        0      -0.00198208      -0.00627291      -0.00108604
C        1.19641187       7.22042728      24.75919979        0      -0.00067683       0.01088600      -0.00255078
H        3.33946404       6.96119738      24.45097926        0       0.00517912       0.00558679      -0.00306096
H        3.27015486       4.45992535      24.57282788        0       0.02640697      -0.01723116       0.00430339
H       -1.04164270       2.30270349      25.46381142        0      -0.00322066       0.00981086      -0.00146021
H       -0.95713366       7.21267509      25.01040117        0      -0.00858378       0.00524443       0.00056529
H        1.26128808       8.30490165      24.64206996        0       0.00728024      -0.00214267       0.00189678
