&FCI NORB=   5,NELEC=   2,MS2= 1,
  ORBSYM=1,1,1,1,1,
  ISYM=0,
 /
 7.9104285159916021E-02   1   1   1   1
 2.3182362484252942E-04   1   1   1   2
-1.1845042194781374E-04   1   1   1   3
-1.0149150371423800E-03   1   1   1   4
-2.4953701566423774E-04   1   1   1   5
 7.5806583329214416E-02   1   1   2   2
-1.1794431208198616E-04   1   1   2   3
 8.5087828313786646E-04   1   1   2   4
 9.4912140043008940E-04   1   1   2   5
 7.4728684473692741E-02   1   1   3   3
-5.7355172314660146E-04   1   1   3   4
 4.1534721520764418E-04   1   1   3   5
 6.9493858460782681E-02   1   1   4   4
-6.5782602138329642E-04   1   1   4   5
 7.0747177284399165E-02   1   1   5   5
 1.5494003376343730E-03   1   2   1   2
 2.1302551385072637E-05   1   2   1   3
 1.5479403317039341E-05   1   2   1   4
 1.7451893141432109E-05   1   2   1   5
 2.9793736580969332E-05   1   2   2   2
-1.9808022762366810E-04   1   2   2   3
 1.5509386372024554E-05   1   2   2   4
-1.4213018980048441E-04   1   2   2   5
 3.7612649998550310E-05   1   2   3   3
 1.8133245190285881E-05   1   2   3   4
 5.1651858741117912E-05   1   2   3   5
 7.2756291606377750E-05   1   2   4   4
-5.8031854722718370E-05   1   2   4   5
 3.0348094122344069E-05   1   2   5   5
 1.4967691809701696E-03   1   3   1   3
-3.7562229916826356E-04   1   3   1   4
-2.5913913752037700E-04   1   3   1   5
 3.0014224912029247E-04   1   3   2   2
-1.5497174451566538E-04   1   3   2   3
 1.4493968114894187E-04   1   3   2   4
 7.6077765897032126E-05   1   3   2   5
-1.0089566410678237E-04   1   3   3   3
-3.5134273258205175E-04   1   3   3   4
 3.7466277377363960E-05   1   3   3   5
-4.9493792454339422E-05   1   3   4   4
 9.5907115882574466E-05   1   3   4   5
-8.6987297889178520E-05   1   3   5   5
 1.7156314492066398E-03   1   4   1   4
 5.5415509206978419E-05   1   4   1   5
-1.3966728997101858E-03   1   4   2   2
 2.2808016643453049E-04   1   4   2   3
-2.0789862205374888E-04   1   4   2   4
-5.1830177951479959E-04   1   4   2   5
-4.9121974206755366E-04   1   4   3   3
 6.9965989687471386E-04   1   4   3   4
-1.5029331986400230E-04   1   4   3   5
 6.1543563124858433E-05   1   4   4   4
 5.4503024480454762E-05   1   4   4   5
-4.9121812156845265E-04   1   4   5   5
 1.3589824255048504E-03   1   5   1   5
-2.4917029965894702E-04   1   5   2   2
 1.8751967732227637E-04   1   5   2   3
-3.5184416700638347E-04   1   5   2   4
-7.6833753423186687E-05   1   5   2   5
 5.6394399941387512E-05   1   5   3   3
 1.6796978514481447E-04   1   5   3   4
 1.7446831796293822E-05   1   5   3   5
 6.2180039302852833E-05   1   5   4   4
 2.0462363417869855E-06   1   5   4   5
-1.0377745735974789E-06   1   5   5   5
 7.8964953321379677E-02   2   2   2   2
-2.7008240547017647E-04   2   2   2   3
 8.6059671855831033E-04   2   2   2   4
 9.4768187226263812E-04   2   2   2   5
 7.5110305819531750E-02   2   2   3   3
-7.3530717265840573E-04   2   2   3   4
 3.9703920615441344E-04   2   2   3   5
 6.9774957890525152E-02   2   2   4   4
-4.6916041121985433E-04   2   2   4   5
 7.0975701042209974E-02   2   2   5   5
 1.5241450429813799E-03   2   3   2   3
-1.8071697785193373E-05   2   3   2   4
 1.1566309139808090E-05   2   3   2   5
-1.5301599199231934E-05   2   3   3   3
 1.1641765898198028E-04   2   3   3   4
 2.4007061520941006E-05   2   3   3   5
 6.9737924931727224E-05   2   3   4   4
-6.2447384475977362E-05   2   3   4   5
-2.7162698703856377E-05   2   3   5   5
 1.4704248204224250E-03   2   4   2   4
 4.6436182452771086E-04   2   4   2   5
 4.8257685095915164E-04   2   4   3   3
-1.8912031865788847E-04   2   4   3   4
 1.1774804019239671E-05   2   4   3   5
 1.7133628927467633E-04   2   4   4   4
-5.7081646613275203E-05   2   4   4   5
 2.7046516541795213E-04   2   4   5   5
 1.7723872071757157E-03   2   5   2   5
 2.4466872892619623E-04   2   5   3   3
-2.7629143020577710E-04   2   5   3   4
 2.4942479833131386E-04   2   5   3   5
-8.8059848396709905E-05   2   5   4   4
-1.3936593874943682E-04   2   5   4   5
 5.5833874873237224E-04   2   5   5   5
 7.7607033645909013E-02   3   3   3   3
 2.1290919631196045E-05   3   3   3   4
 1.8767046576955202E-04   3   3   3   5
 6.9736461446405607E-02   3   3   4   4
-5.8329321899346152E-04   3   3   4   5
 7.0178097573930509E-02   3   3   5   5
 1.5363799072094409E-03   3   4   3   4
-2.4678418042840225E-04   3   4   3   5
-3.2565551468848530E-05   3   4   4   4
 5.6528720799141794E-05   3   4   4   5
-4.3829428604797490E-04   3   4   5   5
 1.2161472031789304E-03   3   5   3   5
-5.8861823648833616E-05   3   5   4   4
-8.4151971923353920E-05   3   5   4   5
 1.8746465551265352E-04   3   5   5   5
 6.8748101060570124E-02   4   4   4   4
-7.3865891705852612E-04   4   4   4   5
 6.6732582087980344E-02   4   4   5   5
 1.2205324323782203E-03   4   5   4   5
-7.7793316554098800E-04   4   5   5   5
 7.0529415475607926E-02   5   5   5   5
-1.3715593593963982E-01   1   1   0   0
-1.3556699616696923E-03   1   2   0   0
-5.8098891555560090E-05   1   3   0   0
 3.5854040424406486E-03   1   4   0   0
 3.2888814846622405E-03   1   5   0   0
-1.3449918468560559E-01   2   2   0   0
 1.5844945561285929E-03   2   3   0   0
 1.0580416901125880E-03   2   4   0   0
 1.7334792843116513E-03   2   5   0   0
-1.3376252424118049E-01   3   3   0   0
 9.9462510469369454E-04   3   4   0   0
 4.0988747945124531E-04   3   5   0   0
-1.2957956444192700E-01   4   4   0   0
 2.3640461952094860E-03   4   5   0   0
-1.3121786679314826E-01   5   5   0   0
-1.9828625502237293E+02   0   0   0   0
