104
Lattice="11.45512985522207 0.0 0.0 5.727564927611035 9.92043345827187 0.0 0.0 0.0 31.691342951089922" Properties=species:S:1:pos:R:3:tags:I:1:forces:R:3 energy=-419.83551025390625 free_energy=-419.83551025390625 stress="0.007820728234946728 4.7637149691581726e-07 8.847564458847046e-09 4.7637149691581726e-07 0.007869038730859756 1.4887191355228424e-06 8.847564458847046e-09 1.4887191355228424e-06 0.008014772087335587" pbc="T T F"
Al       1.59431602       0.85481702       9.92151221        6       0.00040455      -0.00042445       0.00048858
Al       4.45975442       0.85375996       9.93835419        6       0.00034727      -0.00037191       0.00038568
Al       7.31994802       0.85307191       9.94539297        6       0.00034988      -0.00036479       0.00021010
Al      10.18280269       0.85499043       9.92927119        6       0.00034090      -0.00053837       0.00028571
Al       3.02412835       3.33659397       9.91698588        6       0.00039680      -0.00044625       0.00049335
Al       5.88898495       3.33726655       9.92864563        6       0.00032253      -0.00047960       0.00022406
Al       8.75067994       3.33718550       9.91741533        6       0.00039002      -0.00054295       0.00035965
Al      11.61441867       3.33653501       9.90874920        6       0.00044129      -0.00044729       0.00058566
Al       4.45406421       5.81886439       9.94606010        6       0.00025970      -0.00065575      -0.00026048
Al       7.31897133       5.82035175       9.94269057        6       0.00039076      -0.00067692      -0.00031809
Al      10.18179194       5.81827271       9.94062131        6       0.00047901      -0.00049469       0.00009406
Al      13.04514247       5.81782012       9.93999043        6       0.00035387      -0.00051769       0.00028858
Al       5.88779702       8.29634220       9.95228300        6       0.00027915      -0.00046794      -0.00029456
Al       8.75308727       8.29778013       9.95494909        6       0.00046861      -0.00052659       0.00010147
Al      11.61583767       8.29654420       9.96691540        6       0.00034984      -0.00060582       0.00012512
Al      14.47590075       8.29617194       9.96984921        6       0.00033319      -0.00067182      -0.00042529
Al       0.18436754       1.64854666      12.33821205        5      -0.00002668       0.00017116      -0.00131887
Al       3.04715225       1.64699771      12.34154154        5      -0.00107238       0.00011168       0.00282162
Al       5.90812674       1.64442190      12.35446112        5       0.00055648      -0.00030714       0.00141581
Al       8.77517993       1.64800092      12.34845010        5       0.00073423      -0.00004200      -0.00311534
Al       1.61292050       4.12681366      12.34078389        5      -0.00108475      -0.00180963      -0.00293688
Al       4.47321520       4.12277158      12.33929958        5       0.00019013      -0.00025076       0.00100800
Al       7.34212124       4.12224676      12.33596218        5       0.00117881       0.00079304       0.00150626
Al      10.21033607       4.12678288      12.33810114        5       0.00000805      -0.00163303      -0.00285890
Al       3.03820714       6.60721861      12.36037568        5       0.00098365      -0.00066995       0.00010812
Al       5.90800880       6.60750585      12.33992677        5       0.00163985      -0.00059490       0.00579765
Al       8.78680071       6.61179222      12.35097405        5      -0.00255076      -0.00172098       0.00331345
Al      11.63813820       6.61189619      12.37037154        5       0.00001271      -0.00297867      -0.00133204
Al       4.47842740       9.09008822      12.35781258        5      -0.00000522       0.00061029      -0.00192381
Al       7.34825321       9.09390475      12.35375461        5      -0.00083030      -0.00060791       0.00235672
Al      10.20922167       9.09208529      12.37928280        5      -0.00008590      -0.00032819       0.00050627
Al      13.06670641       9.09027657      12.37742917        5       0.00028008       0.00002814       0.00142109
Al       0.17037845      -0.03022661      14.65350326        4       0.00085043      -0.00010334       0.00112952
Al       3.04183274      -0.02789364      14.68336469        4      -0.00154624      -0.00170421      -0.00217979
Al       5.90697800      -0.03707578      14.70593544        4      -0.00093822      -0.00085631       0.00026976
Al       8.76803814      -0.02373781      14.66947175        4      -0.00036784      -0.00158794       0.00143344
Al       1.60532562       2.44817320      14.64984447        4      -0.00078622      -0.00152791      -0.00029715
Al       4.46661714       2.44132062      14.65633108        4      -0.00190905      -0.00280916      -0.00137465
Al       7.33426380       2.43950696      14.65464542        4       0.00019359      -0.00054519       0.00036216
Al      10.19986665       2.45278670      14.65096875        4       0.00031031      -0.00197863       0.00009354
Al       3.02777292       4.92598049      14.65455102        4      -0.00209694      -0.00439956      -0.00564529
Al       5.89561135       4.91992257      14.63867820        4       0.00049626      -0.00047666      -0.00035877
Al       8.76756831       4.92254652      14.64163745        4       0.00062415      -0.00029510       0.00042402
Al      11.62699843       4.92811009      14.66142986        4      -0.00421714      -0.00455223      -0.00652956
Al       4.46153468       7.40795298      14.65217625        4       0.00040284      -0.00015607       0.00070228
Al       7.33950189       7.40189860      14.64273272        4       0.00035886       0.00083750       0.00117981
Al      10.19992005       7.41439317      14.69508712        4       0.00110935      -0.00018491       0.00078054
Al      13.05397575       7.41191498      14.68749593        4      -0.00020410      -0.00008128       0.00108741
Al       1.55727030       0.74061870      16.99142751        3      -0.00657584      -0.00838297      -0.00338947
Al       4.41324165       0.71542717      17.03351312        3       0.00175645      -0.00210962      -0.00050863
Al       7.28700133       0.71476420      17.02750825        3      -0.00080560      -0.00189288       0.00004964
Al      10.14667028       0.73089917      17.00135438        3       0.00256794      -0.00020529       0.00059011
Al       2.97452619       3.19171860      16.97688316        3       0.00035599      -0.00044435      -0.00043140
Al       5.85055514       3.18258640      16.95113789        3       0.00036080       0.00016430       0.00123927
Al       8.72496898       3.19103932      16.97159060        3       0.00050416      -0.00027841       0.00046866
Al      11.57613272       3.19345858      16.99639490        3       0.00057418      -0.00302268      -0.01545921
Al       4.40958467       5.67894380      16.94105413        3       0.00020660      -0.00033971       0.00037388
Al       7.30804575       5.69427706      16.92952002        3      -0.00980687      -0.00538775       0.00198670
Al      10.15021322       5.68514519      16.99263665        3       0.00545215       0.00143691      -0.00096559
Al      12.98995559       5.66768998      16.97182431        3       0.00621332       0.01172237       0.01855659
Al       5.86528162       8.17567668      16.95120709        3      -0.00002042       0.00033349       0.00081685
Al       8.74223648       8.18527490      17.00370084        3       0.00042315       0.00016833       0.00111412
Al      11.58776182       8.17196531      17.10845704        3      -0.00022497      -0.00066451      -0.00545600
Al      14.43592868       8.17695127      17.00443703        3      -0.00661050      -0.00670619      -0.00789128
Al       0.07963114       1.51762603      19.36210535        2      -0.00328909       0.00169437      -0.00452486
Al       2.91091211       1.48063911      19.32192290        2       0.00585685       0.00233268       0.00419137
Al       5.78720497       1.48250805      19.31448188        2      -0.00022806       0.00198388       0.00397645
Al       8.65940026       1.49969801      19.33451164        2       0.00518742      -0.00016743       0.00123439
Al       1.49520671       3.94076352      19.30666130        2      -0.00208472       0.00175653       0.00018791
Al       4.34902500       3.97095971      19.23474026        2       0.00117314      -0.00153719       0.00222322
Al       7.23717581       3.98818254      19.20306042        2      -0.00042419       0.00023034       0.00214010
Al      10.13193068       3.96842161      19.26806737        2      -0.00074884      -0.00028143       0.00169832
Al       2.90805198       6.45516653      19.25294763        2      -0.00099341       0.00033546      -0.00265754
Al       5.79564146       6.46048283      19.18590274        2      -0.00114948       0.00245614       0.00372051
Al       8.67426614       6.49422901      19.24007538        2       0.00228062      -0.00190503      -0.00483832
Al      11.51609966       6.42651537      19.36944857        2       0.00224481       0.00039658      -0.00151481
Al       4.37771055       8.95858091      19.26511298        2       0.00264914      -0.00121108      -0.00261800
Al       7.23643819       8.97809821      19.26492229        2      -0.00025351       0.00242737      -0.00118067
Al      10.11379391       8.94379547      19.51908221        2      -0.00043485      -0.00176201      -0.00039454
Al      12.99210845       8.96384273      19.47806309        2      -0.00450360       0.00083742      -0.00713055
Al      -0.08157499      -0.15392729      21.64951079        1      -0.00193808       0.00249561       0.00259602
Al       2.64252054      -0.19785045      22.07320890        1      -0.00119412      -0.00281322      -0.00233363
Al       5.63609715      -0.17306969      22.10059528        1      -0.00142107       0.00130104       0.00059989
Al       8.55928842      -0.27135591      22.08682863        1       0.00003913      -0.00411455       0.00396972
Al       1.40101144       2.33643084      22.11975429        1       0.00389991       0.00350765      -0.00636600
Al       4.26952017       2.31373824      21.61497313        1      -0.00333273       0.00199361       0.00051933
Al       7.09576351       2.31863567      21.60989573        1       0.00082162      -0.00161511       0.00008254
Al       9.87033618       2.31459498      21.77748109        1       0.00218046      -0.00053766       0.00261944
Al       2.86249276       4.78009970      21.55219427        1      -0.00331604       0.00213853       0.00307407
Al       5.70674594       4.78781697      21.50587671        1       0.00031634       0.00128874       0.00007392
Al       8.49921635       4.78562200      21.53757905        1       0.00368656      -0.00044934       0.00310021
Al      11.38047377       4.84702954      22.08154584        1       0.00363201       0.00443391      -0.00187335
Al       4.25383538       7.24780176      21.51913440        1       0.00441439       0.00627455       0.00037535
Al       7.04173636       7.26654907      21.51953818        1       0.00016471       0.00066727       0.00138770
Al       9.74176323       7.22124374      21.92608200        1       0.00249751       0.00141373      -0.00180803
Al      12.80601272       7.24912867      21.71054774        1       0.00074131       0.00284497      -0.00213039
C        4.65465707       5.54864848      24.76532643        0      -0.03356598       0.02621895      -0.00373879
N        5.13746838       4.30577228      24.82588531        0      -0.01311501      -0.01858754       0.00567365
C        6.48923998       4.49269669      24.94087063        0       0.01813872      -0.00419911       0.00870220
N        6.87818314       5.77323684      24.92046548        0       0.00818975       0.01760847      -0.00100370
N        5.68394511       6.43995069      24.84454726        0      -0.00508505      -0.00512175       0.00424707
H        3.62276741       5.84069355      24.58392738        0       0.00837917      -0.00336806       0.00454603
H        7.21038227       3.67715970      24.96861426        0       0.01095210      -0.01001913       0.00242985
H        5.65719892       7.38394542      24.46282251        0      -0.00285250       0.02454250      -0.01053869
