104
Lattice="11.45512985522207 0.0 0.0 5.727564927611035 9.92043345827187 0.0 0.0 0.0 31.691342951089922" Properties=species:S:1:pos:R:3:tags:I:1:forces:R:3 energy=-419.8740234375 free_energy=-419.8740234375 stress="0.00783467572182417 4.591420292854309e-07 1.6763806343078613e-08 4.591420292854309e-07 0.00788357388228178 1.61072239279747e-06 1.6763806343078613e-08 1.61072239279747e-06 0.008045125752687454" pbc="T T F"
Al       1.58342311       0.85512315       9.91836086        6       0.00029257      -0.00025925       0.00040492
Al       4.44900336       0.85449286       9.93547342        6       0.00019993      -0.00025009       0.00035993
Al       7.30894664       0.85372736       9.94414591        6       0.00024897      -0.00022329       0.00009121
Al      10.17181218       0.85542177       9.92688718        6       0.00026179      -0.00031809       0.00020213
Al       3.01333661       3.33718132       9.91492191        6       0.00029361      -0.00024878       0.00040938
Al       5.87770965       3.33835269       9.92712381        6       0.00023376      -0.00041342       0.00023432
Al       8.73935325       3.33789270       9.91530063        6       0.00028131      -0.00030084       0.00039440
Al      11.60317726       3.33699036       9.90653116        6       0.00030964      -0.00015756       0.00047414
Al       4.44324981       5.81973415       9.94648593        6       0.00011530      -0.00054530      -0.00049892
Al       7.30761192       5.82111890       9.94138253        6       0.00023153      -0.00057575      -0.00018933
Al      10.17022424       5.81870566       9.93885345        6       0.00040071      -0.00032037       0.00008413
Al      13.03430590       5.81822035       9.93862304        6       0.00022251      -0.00027148       0.00010976
Al       5.87669510       8.29620756       9.95063211        6       0.00020350      -0.00022817      -0.00025938
Al       8.74163061       8.29784325       9.95183013        6       0.00036900      -0.00035100       0.00007582
Al      11.60482856       8.29685962       9.96501691        6       0.00021688      -0.00045277       0.00001114
Al      14.46523272       8.29635486       9.96984929        6       0.00022922      -0.00034038      -0.00049641
Al       0.17561704       1.65089040      12.33185960        5      -0.00007941       0.00155545       0.00083589
Al       3.03597647       1.64964311      12.34452795        5       0.00072969       0.00144939      -0.00524363
Al       5.90164868       1.64914829      12.35346209        5      -0.00017433      -0.00012812      -0.00253632
Al       8.76952163       1.64947013      12.34353895        5      -0.00024043       0.00244604      -0.00011720
Al       1.60091364       4.13102505      12.33104098        5       0.00122382      -0.00113580       0.00487143
Al       4.46569161       4.12855690      12.33920512        5       0.00006544      -0.00141566      -0.00201306
Al       7.33750518       4.12975844      12.34051368        5      -0.00116554      -0.00227429      -0.00576985
Al      10.20064059       4.13223926      12.33610367        5       0.00082341      -0.00248137      -0.00197710
Al       3.03113295       6.61001508      12.35251450        5       0.00128688       0.00022434       0.00521538
Al       5.90505604       6.61301506      12.34596002        5      -0.00222394      -0.00136088      -0.00115226
Al       8.77455773       6.61436176      12.35495111        5       0.00068605       0.00033170      -0.00004792
Al      11.62828380       6.61223559      12.36211365        5       0.00041797       0.00046935       0.00503420
Al       4.47195601       9.09729866      12.35356526        5       0.00009976      -0.00182480       0.00302760
Al       7.33811075       9.09811766      12.35610031        5       0.00006063      -0.00086269      -0.00246272
Al      10.19811973       9.09607457      12.37273477        5       0.00135131      -0.00108028       0.00366437
Al      13.06256219       9.09583641      12.37195389        5      -0.00148092      -0.00096707       0.00361194
Al       0.17188621      -0.01689395      14.66073368        4      -0.00336053      -0.00531114      -0.00568735
Al       3.03687181      -0.01660761      14.67923964        4      -0.00098175      -0.00423514      -0.00217013
Al       5.90256740      -0.02942748      14.69692820        4      -0.00075648      -0.00052156       0.00055078
Al       8.76365125      -0.01688614      14.67118062        4      -0.00001587      -0.00095402       0.00083181
Al       1.60015096       2.45104947      14.64568190        4      -0.00061610      -0.00006268       0.00000369
Al       4.46278306       2.44623140      14.64769175        4      -0.00075074      -0.00100765       0.00092140
Al       7.32856778       2.44535080      14.64835966        4       0.00008459      -0.00057426       0.00037191
Al      10.19780871       2.46068173      14.64905721        4      -0.00187417      -0.00452007      -0.00286509
Al       3.02395645       4.92887596      14.65056440        4      -0.00207242      -0.00111091      -0.00114396
Al       5.88938043       4.92702098      14.63937327        4      -0.00004323      -0.00132179      -0.00203544
Al       8.76260181       4.92766578      14.63684367        4       0.00168185       0.00120348       0.00354332
Al      11.62056393       4.93487535      14.66167604        4       0.00022042      -0.00092499      -0.00070507
Al       4.45710124       7.41313706      14.65344371        4       0.00015979       0.00022810       0.00046609
Al       7.32969092       7.40751434      14.63458162        4       0.00460791       0.00416579       0.01008744
Al      10.20692533       7.42688930      14.70123041        4      -0.00468743      -0.00424383      -0.00524285
Al      13.04866642       7.41867392      14.68124215        4      -0.00060019      -0.00067938       0.00030190
Al       1.54116948       0.73402046      16.98523095        3       0.01347588       0.00695613       0.01268629
Al       4.42087330       0.72295948      17.02958540        3      -0.00492455      -0.00215135      -0.00100435
Al       7.28383974       0.71700547      17.02373101        3      -0.00062479      -0.00192594      -0.00060424
Al      10.15103011       0.74265575      16.99950899        3      -0.00025493      -0.00284739       0.00115567
Al       2.96979336       3.19904088      16.96575257        3       0.00023488      -0.00022776       0.00096222
Al       5.84741301       3.19085403      16.95379988        3      -0.00105747      -0.00050174       0.00023932
Al       8.71525987       3.18989164      16.96233920        3       0.00618769       0.00711708       0.00264385
Al      11.57242126       3.19259191      16.98995836        3       0.00182856       0.00227828      -0.00135611
Al       4.41003955       5.68766237      16.94647000        3      -0.00244377      -0.00147574      -0.00192336
Al       7.28164410       5.69029990      16.93410328        3       0.01486554       0.00510417       0.00042978
Al      10.16601043       5.69525656      16.98926002        3      -0.01497673      -0.00288398       0.00103291
Al      12.99131373       5.69523522      16.99264456        3      -0.00282104      -0.01430723      -0.00904411
Al       5.86339299       8.18572357      16.95684753        3      -0.00209657      -0.00122192      -0.00112902
Al       8.74307882       8.19970265      16.99967462        3      -0.00631640      -0.00790535       0.00442827
Al      11.58231331       8.17695504      17.10524011        3       0.00019601       0.00051329      -0.00048989
Al      14.42154978       8.17380166      16.98824990        3       0.00719839       0.00598664       0.00709546
Al       0.06426447       1.50740937      19.39190301        2       0.00333161       0.00554464      -0.01159672
Al       2.90808870       1.49414418      19.34290317        2      -0.00073293      -0.00145688      -0.01188997
Al       5.78491087       1.49534955      19.31206250        2      -0.00238627      -0.00191546      -0.00216194
Al       8.66455305       1.50020824      19.31827371        2       0.00103448       0.00192407       0.00266723
Al       1.49157503       3.94735411      19.30063777        2      -0.00178880       0.00145125      -0.00197468
Al       4.33394170       3.97794083      19.23809320        2       0.00416449       0.00067789      -0.00579573
Al       7.23519215       3.99161243      19.20156977        2      -0.00148852       0.00162744      -0.00222568
Al      10.12946211       3.98020421      19.26784138        2      -0.00007885      -0.00065411      -0.00265728
Al       2.90131411       6.45648959      19.24647697        2       0.00271111       0.00327769       0.01004911
Al       5.79680411       6.47729189      19.19755915        2      -0.00347747      -0.00384103      -0.00301628
Al       8.67447460       6.49625529      19.24808565        2       0.00099047       0.00026458      -0.00931548
Al      11.51853645       6.43900891      19.39158470        2       0.00047651      -0.00082982      -0.00625262
Al       4.37987109       8.95982166      19.26635481        2      -0.00197475       0.00019031      -0.00434327
Al       7.23513633       8.98193654      19.26985117        2       0.00033378       0.00264061       0.00000054
Al      10.10722855       8.95322549      19.50959770        2       0.00010028      -0.00107804       0.00002884
Al      12.98840645       8.97372674      19.47723386        2      -0.00190544      -0.00206274      -0.00248817
Al      -0.07978541      -0.20026626      21.67848085        1       0.00070934       0.01108160       0.00146133
Al       2.65188913      -0.18370477      22.08425277        1      -0.00100437      -0.00467103      -0.00196546
Al       5.64549123      -0.16102105      22.05899185        1      -0.00280010       0.00086053       0.00195424
Al       8.56153798      -0.23664433      22.06615683        1      -0.00127629      -0.00333165       0.00215990
Al       1.39591330       2.34307565      22.10051391        1       0.00164447       0.00249665      -0.00090239
Al       4.26266575       2.31413597      21.61251960        1       0.00083876       0.00506362       0.00468648
Al       7.10597755       2.34297695      21.59212377        1      -0.00327299      -0.00581127       0.00435338
Al       9.88227204       2.32735014      21.75136014        1       0.00223270      -0.00194136       0.00290392
Al       2.85810255       4.78166503      21.56201424        1      -0.00177989       0.00218593      -0.00119783
Al       5.69550428       4.79560369      21.51177820        1       0.00121168       0.00060910      -0.00207783
Al       8.49030385       4.80053752      21.53604114        1       0.00285223      -0.00355528       0.00442875
Al      11.35026835       4.82936594      22.05871146        1       0.00448210       0.00619723      -0.00071666
Al       4.23683230       7.28352828      21.51017647        1       0.00382508      -0.00742433       0.00923524
Al       7.03972348       7.26163202      21.53035037        1      -0.00174229       0.00211073       0.00147173
Al       9.72858987       7.22620687      21.92123686        1       0.00570887       0.00262220      -0.00082473
Al      12.80334091       7.23642867      21.73859916        1       0.00170723       0.00534806      -0.00212502
C        4.71951516       5.46907582      24.78626044        0       0.01038116      -0.01307342       0.00052261
N        5.22762809       4.23514078      24.84779485        0       0.00653403       0.01090597       0.00044487
C        6.57761128       4.45070947      24.95501498        0      -0.03393051       0.01057886       0.00054105
N        6.93934859       5.73971657      24.94415800        0      -0.01633776       0.00930603      -0.00875728
N        5.72935889       6.38093462      24.86943003        0       0.00378476       0.00597289      -0.00214148
H        3.68148450       5.73687710      24.60644585        0      -0.00485751       0.00630712      -0.00041090
H        7.31340729       3.64720223      24.95752687        0       0.01459004      -0.00080698       0.01774775
H        5.68114846       7.32760580      24.49347448        0       0.00223117      -0.00710090       0.00148075
