104
Lattice="11.45512985522207 0.0 0.0 5.727564927611035 9.92043345827187 0.0 0.0 0.0 31.691342951089922" Properties=species:S:1:pos:R:3:tags:I:1:forces:R:3 energy=-419.95001220703125 free_energy=-419.95001220703125 stress="0.0085824616253376 6.151385605335236e-07 -1.8114224076271057e-07 6.151385605335236e-07 0.00862075760960579 1.9618310034275055e-06 -1.8114224076271057e-07 1.9618310034275055e-06 0.008814861997961998" pbc="T T F"
Al       1.43525360       0.84415386       9.88921553        6       0.00069866      -0.00013714       0.00074638
Al       4.29970209       0.84010847       9.90606186        6       0.00071160       0.00009883       0.00058208
Al       7.16220936       0.84164378       9.92345113        6       0.00067985       0.00005049       0.00037135
Al      10.02424644       0.84601116       9.90139597        6       0.00072307      -0.00022635       0.00064269
Al       2.86423391       3.32606390       9.90877431        6       0.00080491      -0.00002512       0.00034606
Al       5.72912868       3.32217573       9.91304359        6       0.00067176       0.00020030       0.00032624
Al       8.59256840       3.32363506       9.90724330        6       0.00060640       0.00014940       0.00030541
Al      11.45697204       3.32590701       9.90227914        6       0.00068767      -0.00003607       0.00042126
Al       4.29370316       5.80821399       9.94466727        6       0.00075572      -0.00024990      -0.00023084
Al       7.15764226       5.80637320       9.92816436        6       0.00069304      -0.00014641       0.00007013
Al      10.02367424       5.80526023       9.93398183        6       0.00063315      -0.00006123      -0.00005191
Al      12.88602135       5.80898873       9.94502765        6       0.00078784      -0.00030099      -0.00030244
Al       5.72757652       8.28709136       9.92241249        6       0.00067910      -0.00022825       0.00039833
Al       8.59432783       8.28388860       9.91629912        6       0.00065473      -0.00016445       0.00046389
Al      11.45873764       8.28563076       9.94918749        6       0.00060483      -0.00026689      -0.00000354
Al      14.31780340       8.28769482       9.95116018        6       0.00085018      -0.00033565       0.00003697
Al       0.04249714       1.65337572      12.32682383        5       0.00155107       0.00051187      -0.00808280
Al       2.90802208       1.65469376      12.32637452        5      -0.00046237      -0.00061227      -0.00387252
Al       5.76855804       1.65365374      12.33828348        5       0.00127240      -0.00023432      -0.00253783
Al       8.63203336       1.65368267      12.33655946        5       0.00217783      -0.00034105      -0.00642223
Al       1.47527832       4.13359682      12.33883989        5       0.00052561      -0.00011943      -0.00431653
Al       4.33713492       4.13286476      12.33431184        5       0.00131246       0.00038815       0.00141320
Al       7.20395608       4.13562115      12.32842559        5      -0.00003732      -0.00050811       0.00160525
Al      10.06476323       4.13318579      12.33333089        5       0.00262851       0.00013259      -0.00490534
Al       2.90579169       6.61821068      12.36018307        5       0.00126107       0.00088031       0.00396568
Al       5.77076716       6.62240470      12.33774945        5       0.00096679      -0.00030721       0.00552545
Al       8.63534540       6.62145148      12.34047634        5       0.00124210       0.00052112       0.00423358
Al      11.49969445       6.61979427      12.35473229        5       0.00048145       0.00081447       0.00484532
Al       4.33878807       9.10101434      12.35339507        5       0.00067713      -0.00001699      -0.00387708
Al       7.20249930       9.09966457      12.33651223        5       0.00147907       0.00136096      -0.00243781
Al      10.06679056       9.10026457      12.34827648        5       0.00094111       0.00034847       0.00374753
Al      12.93154376       9.10003655      12.36665763        5      -0.00000222       0.00065445       0.00325962
Al       0.05430694      -0.00347090      14.65134195        4       0.00098236       0.00022933       0.00091199
Al       2.91466135      -0.00543931      14.65142765        4       0.00062831       0.00024036       0.00089276
Al       5.77493483      -0.00716312      14.68356230        4       0.00077126      -0.00003425       0.00063744
Al       8.64757770      -0.00557554      14.68007858        4      -0.00009210      -0.00056855      -0.00027584
Al       1.48490452       2.46451276      14.62735742        4       0.00013976       0.00044636       0.00145841
Al       4.34098525       2.45848829      14.64139313        4       0.00038091       0.00047193       0.00062058
Al       7.20532647       2.46166853      14.64053545        4       0.00149059      -0.00003350      -0.00080079
Al      10.07384033       2.45999809      14.63156758        4       0.00238730       0.00202901       0.00137044
Al       2.91459409       4.95228376      14.65380631        4      -0.00100629      -0.00016795      -0.00048707
Al       5.77400205       4.95223573      14.64048888        4       0.00020531       0.00023779      -0.00681381
Al       8.64541144       4.95584814      14.63767228        4       0.00139545      -0.00013442      -0.00164755
Al      11.50550593       4.95512102      14.63896968        4       0.00134671       0.00001558       0.00130316
Al       4.34870882       7.44178790      14.67126425        4       0.00021060       0.00030833       0.00032737
Al       7.21341968       7.45176704      14.65585144        4       0.00075937      -0.00070319      -0.00080683
Al      10.08055530       7.44764307      14.67229528        4       0.00069900       0.00018334       0.00072922
Al      12.93842306       7.44571022      14.68346776        4       0.00060043       0.00009033       0.00101941
Al       1.48737436       0.81024899      17.00642306        3      -0.00628765      -0.00638750      -0.01155381
Al       4.32341389       0.79083768      17.00822902        3       0.00247096       0.00085516       0.00001224
Al       7.20942803       0.78628706      17.01274653        3      -0.00093172      -0.00137348      -0.00051083
Al      10.10027663       0.80034034      16.98478601        3      -0.00272626       0.00071784       0.00589495
Al       2.88230924       3.26438113      16.97022824        3       0.01426987       0.00142819      -0.00646395
Al       5.76909053       3.25990536      16.92816459        3      -0.00438974       0.00341989       0.00818306
Al       8.65307380       3.26356959      16.93765113        3       0.00045864       0.00042329      -0.00022965
Al      11.51993965       3.27822280      16.96760510        3      -0.00345345      -0.00276928      -0.00131358
Al       4.31573685       5.77028209      16.95265333        3       0.00679069      -0.00056706       0.00214084
Al       7.20904356       5.76853497      16.91994361        3       0.00137328       0.00218873       0.00601131
Al      10.09508165       5.77517329      16.95556876        3      -0.00958490       0.00183609       0.00836112
Al      12.92262941       5.76656277      16.99624600        3       0.00284350       0.00335565      -0.00154240
Al       5.77457562       8.26995524      16.99192423        3       0.00185817       0.00007908      -0.00191956
Al       8.65083052       8.27579970      16.99649973        3      -0.00079470      -0.00433158      -0.00060025
Al      11.51359742       8.26369091      17.06350760        3       0.00073820       0.00089988      -0.00132287
Al      14.36110930       8.27266495      17.03880805        3       0.00055177      -0.00023887       0.00061275
Al       0.06373894       1.60432993      19.35625703        2      -0.00685762      -0.00315963      -0.00159843
Al       2.85343676       1.60585705      19.35716969        2       0.00239233      -0.00101044       0.00101229
Al       5.72716355       1.60457621      19.27082093        2       0.00668367       0.00125013       0.00663339
Al       8.64393409       1.59190902      19.25586911        2      -0.00335943       0.00183095       0.00690709
Al       1.46771036       4.09452962      19.30081826        2       0.00023915      -0.00076591      -0.00556226
Al       4.30030277       4.08020433      19.21595328        2       0.00196944       0.00171535      -0.00070643
Al       7.20268159       4.09623862      19.18249165        2      -0.00072035      -0.00240263      -0.00004943
Al      10.07232983       4.08046496      19.22122532        2       0.00034614       0.00171759      -0.00774803
Al       2.89363383       6.58931967      19.29120865        2      -0.00214731      -0.00026376       0.01221176
Al       5.76065205       6.60837157      19.20392354        2      -0.00115319      -0.00228927       0.00922595
Al       8.62860597       6.60359133      19.22634617        2      -0.00039223      -0.00449011      -0.00134944
Al      11.49791576       6.60870080      19.33235052        2       0.00144605      -0.00568613       0.00517583
Al       4.34017430       9.07669923      19.37248642        2      -0.00144039      -0.00276816       0.00256643
Al       7.20920147       9.10223978      19.32914301        2      -0.00069389      -0.00577751       0.00132196
Al      10.05656997       9.07234246      19.42298356        2       0.00084407      -0.00192061      -0.00217988
Al      12.92719317       9.06183460      19.52549225        2       0.00074320       0.00018502       0.00087480
Al      -0.15595120      -0.17663230      22.04025326        1       0.00075829      -0.00280901      -0.00218088
Al       2.75722762      -0.03647380      22.05893364        1       0.00091838      -0.00407393      -0.00104523
Al       5.60048330      -0.00446699      21.93485958        1      -0.00268598      -0.00062542      -0.00362571
Al       8.44766193       0.01127513      21.97383072        1       0.00194846      -0.00096420      -0.00237686
Al       1.41024002       2.56513405      22.13977166        1       0.00204025      -0.00204898      -0.00894104
Al       4.28407105       2.47336789      21.58555984        1      -0.00298756      -0.00322466      -0.00035087
Al       7.11333963       2.48246845      21.57715015        1       0.00260876      -0.00174580      -0.00128598
Al      10.02442810       2.42040707      21.61032064        1      -0.00298425       0.00017511      -0.00801509
Al       2.89351465       4.93080251      21.61987047        1      -0.00272700      -0.00141436      -0.00273744
Al       5.73278326       4.93045587      21.41674745        1      -0.00030664      -0.00094393      -0.00806875
Al       8.53961338       4.87014100      21.55814082        1      -0.00145612      -0.00168692       0.00062637
Al      11.41136540       4.91013930      21.58712990        1      -0.00366955       0.00080336       0.00257153
Al       4.20904641       7.37475042      21.64943730        1       0.00066442       0.00099021       0.00393223
Al       7.09876507       7.38246643      21.57575674        1      -0.00227830       0.00224027      -0.00427660
Al       9.84283200       7.26701498      21.75466241        1      -0.00279401      -0.00102941       0.00050399
Al      12.80396171       7.30588940      22.13708271        1       0.00329347       0.00083489      -0.00322170
C        5.75895558       4.36910946      24.74172836        0       0.01487551      -0.00882348       0.01684622
N        6.70990310       3.48316973      25.05869855        0      -0.02862628       0.03740411      -0.00504370
C        7.81137355       4.26502347      25.28130691        0      -0.01681891       0.00534766      -0.00998066
N        7.61302141       5.57549755      25.08347441        0      -0.01512454      -0.00057552      -0.01088396
N        6.27996326       5.63090866      24.78385132        0       0.02765602      -0.04360961       0.01140229
H        4.74277026       4.13603064      24.42809264        0       0.02112736       0.03016018       0.00989169
H        8.78590967       3.86925629      25.56362416        0      -0.02318755       0.00950793      -0.01204969
H        5.89153512       6.43883855      24.29498575        0      -0.00948936       0.00599979       0.01111016
