104
Lattice="11.45512985522207 0.0 0.0 5.727564927611035 9.92043345827187 0.0 0.0 0.0 31.691342951089922" Properties=species:S:1:pos:R:3:tags:I:1:forces:R:3 energy=-420.0960693359375 free_energy=-420.0960693359375 stress="0.009024003520607948 -5.774199962615967e-08 5.541369318962097e-08 -5.774199962615967e-08 0.00907135009765625 2.2314488887786865e-06 5.541369318962097e-08 2.2314488887786865e-06 0.009302604012191296" pbc="T T F"
Al       1.52667191       0.85412563       9.87687474        6       0.00042728      -0.00023492       0.00151037
Al       4.39155882       0.85526850       9.89758133        6       0.00042624      -0.00034880       0.00130406
Al       7.25156093       0.85499460       9.91307002        6       0.00045318      -0.00034888       0.00113109
Al      10.11452133       0.85385629       9.88812479        6       0.00045933      -0.00018614       0.00145241
Al       2.95701917       3.33855415       9.88315896        6       0.00039959      -0.00030915       0.00135034
Al       5.81766618       3.34023615       9.89507830        6       0.00056848      -0.00040082       0.00126804
Al       8.67986077       3.34006996       9.88164811        6       0.00057724      -0.00036047       0.00143342
Al      11.54522783       3.33924419       9.87302153        6       0.00048802      -0.00032823       0.00147328
Al       4.38372630       5.81661945       9.91989810        6       0.00052711      -0.00014597       0.00118732
Al       7.24713737       5.81711555       9.90747593        6       0.00055715      -0.00016031       0.00137018
Al      10.11085309       5.81748428       9.90712788        6       0.00054631      -0.00025169       0.00136703
Al      12.97636398       5.81669146       9.91107555        6       0.00046745      -0.00018223       0.00127771
Al       5.81711911       8.29300040       9.91280032        6       0.00052719      -0.00010561       0.00137907
Al       8.68323899       8.29264044       9.91067345        6       0.00050028      -0.00008310       0.00140763
Al      11.54567238       8.29086503       9.93407733        6       0.00054742      -0.00000689       0.00115619
Al      14.40956157       8.29182722       9.93992347        6       0.00039706      -0.00003030       0.00112026
Al       0.14070382       1.66875536      12.30958989        5      -0.00067286       0.00009991      -0.00003674
Al       3.00242555       1.66904684      12.31625293        5      -0.00069242      -0.00002627      -0.00105160
Al       5.86539924       1.66865487      12.32896862        5       0.00046648      -0.00025143       0.00139580
Al       8.72960601       1.66709702      12.32334254        5       0.00067998       0.00070092      -0.00016104
Al       1.57078498       4.15078963      12.31341813        5      -0.00070722      -0.00187060       0.00299030
Al       4.43503856       4.15175891      12.32549073        5      -0.00046391      -0.00172157      -0.00063567
Al       7.30109472       4.15269615      12.32352442        5       0.00043850      -0.00161287       0.00037278
Al      10.16436281       4.15215979      12.31580622        5       0.00001006      -0.00257118       0.00126521
Al       3.00163482       6.63427284      12.35328892        5      -0.00010285      -0.00113562       0.00052298
Al       5.86871147       6.63847403      12.34067823        5      -0.00022244      -0.00175597       0.00234178
Al       8.73511880       6.63792649      12.34350239        5      -0.00041901      -0.00167943       0.00128334
Al      11.59612383       6.63438952      12.34887211        5      -0.00048542      -0.00107458       0.00332289
Al       4.43466866       9.11573716      12.34968177        5      -0.00012957      -0.00089675      -0.00099000
Al       7.29935865       9.11556611      12.33625280        5      -0.00053569      -0.00094616      -0.00147503
Al      10.16223730       9.11420275      12.34956297        5       0.00042702      -0.00107271       0.00201589
Al      13.02617049       9.11349650      12.36182309        5      -0.00045370      -0.00069347       0.00285618
Al       0.14666650      -0.00001970      14.65658474        4      -0.00035044      -0.00078499       0.00089190
Al       3.00734676       0.00019222      14.65388940        4      -0.00021666      -0.00123307       0.00096511
Al       5.86842181      -0.00184357      14.67860649        4       0.00035681      -0.00038189       0.00132535
Al       8.73398084      -0.00481031      14.68244737        4      -0.00073830      -0.00048568      -0.00114344
Al       1.57319509       2.46828812      14.62931632        4      -0.00039251      -0.00058316       0.00003857
Al       4.43225446       2.46422797      14.63092227        4       0.00039944       0.00012152       0.00131505
Al       7.30463273       2.46855995      14.63424965        4      -0.00005210      -0.00032275       0.00116370
Al      10.17150746       2.46204221      14.62512575        4      -0.00026548       0.00015808       0.00122811
Al       2.99261557       4.94527645      14.63790162        4       0.00082166       0.00051739       0.00074750
Al       5.87156831       4.95698066      14.63359950        4      -0.00050174      -0.00083396       0.00034191
Al       8.74766641       4.95576132      14.63955379        4      -0.00112082      -0.00066179      -0.00018569
Al      11.59773334       4.95326206      14.64462912        4       0.00022557      -0.00030975       0.00019413
Al       4.43327352       7.44539292      14.66949840        4       0.00025799      -0.00098753      -0.00023235
Al       7.30687706       7.44799835      14.65903966        4       0.00034966      -0.00020187       0.00115274
Al      10.18034213       7.44542718      14.68129168        4      -0.00016479      -0.00001465       0.00111080
Al      13.02586065       7.44272735      14.68513873        4       0.00005117      -0.00019344       0.00101367
Al       1.54102065       0.75378628      16.99350929        3       0.00019009       0.00012476       0.00154529
Al       4.38519282       0.73266970      17.00561020        3       0.00235430       0.00282138       0.00172511
Al       7.26056064       0.73665178      17.02541000        3       0.00004420      -0.00035338      -0.00003287
Al      10.13470958       0.75037874      17.00691027        3       0.00086310      -0.00049633       0.00174969
Al       2.96303940       3.21921771      16.95199714        3      -0.00053006      -0.00050539       0.00154449
Al       5.82293277       3.21670013      16.94261791        3       0.00118686      -0.00064223       0.00033688
Al       8.70797376       3.21608019      16.94816415        3       0.00021442      -0.00036740      -0.00080193
Al      11.56386400       3.22077161      16.95072615        3       0.00065441       0.00003831       0.00163771
Al       4.38808946       5.71659715      16.94530865        3       0.00045490      -0.00001342       0.00069395
Al       7.27927074       5.72303371      16.94279144        3      -0.00037992      -0.00053490      -0.00115839
Al      10.15102701       5.72881670      16.97585301        3       0.00056200       0.00052857       0.00083981
Al      12.99693604       5.71702565      16.98242965        3      -0.00381211      -0.00028493       0.00212592
Al       5.83929950       8.20737185      17.00041426        3      -0.00094877       0.00614379      -0.00904668
Al       8.71129348       8.21471416      17.00902480        3       0.00025158      -0.00013546       0.00119565
Al      11.57200801       8.20728828      17.07734833        3       0.00039956       0.00012219       0.00148829
Al      14.41691151       8.20194545      17.02531315        3       0.00046522       0.00184298       0.00239413
Al       0.07958480       1.53912793      19.35823103        2      -0.00287042      -0.00158600      -0.00034629
Al       2.89614111       1.52890748      19.35233535        2      -0.00402478      -0.00287858      -0.00467332
Al       5.75382620       1.52775772      19.29651849        2       0.00195798       0.00061860      -0.00016195
Al       8.65802846       1.52837620      19.31098271        2       0.00123474      -0.00180561      -0.00337441
Al       1.48033754       4.00435526      19.27019160        2      -0.00034780      -0.00128784      -0.00182992
Al       4.32947534       4.00995437      19.22708260        2       0.00035905       0.00094419      -0.00358744
Al       7.23537530       4.01612273      19.19370043        2      -0.00532138       0.00040045       0.00343023
Al      10.11686619       4.02591626      19.22066275        2       0.00114926      -0.00131527       0.00518887
Al       2.90334680       6.50968181      19.29215458        2       0.00195634      -0.00261605      -0.00219764
Al       5.77400662       6.50187682      19.20498856        2       0.00225707      -0.00173305       0.00532384
Al       8.67095961       6.51060947      19.24963853        2       0.00066474       0.00153752      -0.00761678
Al      11.52802410       6.48383700      19.38059185        2      -0.00061312       0.00065732      -0.00004574
Al       4.36937086       8.98480161      19.36264088        2       0.00023317       0.00140981      -0.00290612
Al       7.22908157       9.00825892      19.33991641        2      -0.00047416       0.00147115      -0.00607550
Al      10.07453189       8.97680700      19.43577771        2       0.00055007       0.00021021       0.00009314
Al      12.95022847       8.99009865      19.50251000        2       0.00060470       0.00008008       0.00083233
Al      -0.10414899      -0.26070441      21.90000252        1      -0.00189165      -0.00159394      -0.00363674
Al       2.69062278      -0.20087347      22.12045392        1       0.00167454       0.00282209      -0.00061718
Al       5.58816087      -0.09577234      21.89162919        1      -0.00029909      -0.00039296       0.00564022
Al       8.53343878      -0.09909256      22.03111834        1      -0.00049939      -0.00269878      -0.00009954
Al       1.39565084       2.41482192      22.00010334        1       0.00085099      -0.00014265       0.00469973
Al       4.26185761       2.40549884      21.63114542        1      -0.00010945      -0.00196428      -0.00244161
Al       7.11710299       2.37031069      21.59205335        1      -0.00294883       0.00232501      -0.00044398
Al       9.99082414       2.34002703      21.66006176        1      -0.00108479       0.00201869      -0.00206758
Al       2.79076872       4.83972709      21.58804431        1       0.00161220      -0.00124022      -0.00244180
Al       5.68174186       4.82013175      21.50481480        1       0.00171889       0.00032480      -0.00295253
Al       8.45118845       4.79798742      21.57316598        1       0.00270302       0.00252888      -0.00240693
Al      11.23666641       4.87169912      21.89762316        1       0.00463872      -0.00014559       0.00080733
Al       4.21622530       7.26186360      21.66743104        1       0.00013807       0.00279604      -0.00569021
Al       7.01058885       7.27245242      21.55968859        1       0.00393221      -0.00057698      -0.00252466
Al       9.71294816       7.25287285      21.87570513        1       0.00121290      -0.00243144      -0.00059553
Al      12.80002839       7.28069605      21.88716238        1       0.00019814      -0.00343983      -0.00139038
C        5.03509165       5.12143534      24.88292219        0       0.00300782      -0.00285686      -0.00674759
N        5.64545889       3.94354287      25.03812778        0      -0.00105468       0.00269076      -0.00182593
C        6.96918056       4.28010801      25.12162657        0       0.00008686       0.02510245      -0.00316049
N        7.21989250       5.59325815      25.00954034        0      -0.00072719      -0.00090025      -0.00218142
N        5.96342035       6.12065077      24.89765208        0      -0.00265659       0.00298523      -0.00015219
H        3.98011534       5.28855191      24.68596286        0      -0.01711036       0.00667958      -0.00489160
H        7.77641728       3.55204022      25.19554182        0       0.00459486      -0.00222853       0.00039706
H        5.83232339       7.04602150      24.48881023        0      -0.00093584      -0.00588233       0.00130202
