104
Lattice="11.45512985522207 0.0 0.0 5.727564927611035 9.92043345827187 0.0 0.0 0.0 31.691342951089922" Properties=species:S:1:pos:R:3:tags:I:1:forces:R:3 energy=-420.01568603515625 free_energy=-420.01568603515625 stress="0.009359889663755894 -1.2200325727462769e-07 1.0989606380462646e-07 -1.2200325727462769e-07 0.009405642747879028 2.2533349692821503e-06 1.0989606380462646e-07 2.2533349692821503e-06 0.009639361873269081" pbc="T T F"
Al       1.52911829       0.85510837       9.86663104        6       0.00051789      -0.00005716       0.00154896
Al       4.39402668       0.85582062       9.88861114        6       0.00051785      -0.00012223       0.00138721
Al       7.25395841       0.85566261       9.90544786        6       0.00052993      -0.00011675       0.00120527
Al      10.11673513       0.85504276       9.87875212        6       0.00056049      -0.00000313       0.00148092
Al       2.95907045       3.33955266       9.87413800        6       0.00053202      -0.00013076       0.00141609
Al       5.81998320       3.34089884       9.88629123        6       0.00065484      -0.00016594       0.00142532
Al       8.68230834       3.34067489       9.87247185        6       0.00062235      -0.00010922       0.00150836
Al      11.54755433       3.34020098       9.86352293        6       0.00056626      -0.00013579       0.00150247
Al       4.38562157       5.81800213       9.91356931        6       0.00065033       0.00000641       0.00129075
Al       7.24922855       5.81845476       9.89978723        6       0.00064221      -0.00002728       0.00148736
Al      10.11316268       5.81855694       9.90001022        6       0.00059879      -0.00009603       0.00142992
Al      12.97840615       5.81812810       9.90494683        6       0.00057014      -0.00004110       0.00130014
Al       5.81930893       8.29415791       9.90492034        6       0.00062760       0.00006458       0.00142010
Al       8.68564282       8.29371158       9.90243586        6       0.00057327       0.00006484       0.00145988
Al      11.54815827       8.29211912       9.92851091        6       0.00061765       0.00013673       0.00114859
Al      14.41143479       8.29312198       9.93431376        6       0.00052084       0.00013781       0.00117687
Al       0.14322698       1.66931628      12.30323267        5      -0.00046401       0.00033416       0.00167153
Al       3.00634310       1.67058330      12.31257797        5      -0.00059682       0.00011668      -0.00177471
Al       5.86883193       1.67115679      12.32694757        5       0.00032426      -0.00084379      -0.00003169
Al       8.72975150       1.66772432      12.31674560        5       0.00135654       0.00109198       0.00231252
Al       1.57418847       4.14990829      12.30725675        5      -0.00031804      -0.00087893       0.00416622
Al       4.44114764       4.15258724      12.32608826        5      -0.00169182      -0.00202722      -0.00414543
Al       7.30244354       4.15422561      12.32456564        5       0.00107914      -0.00206423      -0.00281277
Al      10.16400396       4.15140863      12.31105866        5       0.00056261      -0.00151930       0.00195318
Al       3.00605029       6.63342624      12.35323013        5      -0.00056227      -0.00048437      -0.00178722
Al       5.87194512       6.63817236      12.34159206        5      -0.00017800      -0.00124354      -0.00038990
Al       8.73659691       6.63726932      12.34531517        5      -0.00007910      -0.00114087      -0.00220131
Al      11.59845795       6.63460539      12.34684046        5      -0.00030242      -0.00071318       0.00133137
Al       4.43670010       9.11676768      12.34516176        5       0.00044735      -0.00068348       0.00127538
Al       7.30229969       9.11637035      12.33187601        5      -0.00062067      -0.00107875      -0.00166120
Al      10.16586659       9.11524703      12.34600730        5       0.00033190      -0.00111922       0.00081301
Al      13.02932349       9.11492478      12.36065766        5      -0.00048950      -0.00098641       0.00120493
Al       0.15183041      -0.00039030      14.65676574        4      -0.00229231      -0.00199130      -0.00171161
Al       3.01132056      -0.00065557      14.64748912        4      -0.00007742      -0.00051225       0.00156994
Al       5.87108891      -0.00072727      14.67703933        4       0.00067627      -0.00060757       0.00122172
Al       8.73808887      -0.00446048      14.68269212        4      -0.00001876       0.00013524      -0.00001580
Al       1.57855235       2.46754062      14.62689595        4      -0.00050518      -0.00013166       0.00050589
Al       4.43760067       2.46318776      14.63442548        4       0.00019190       0.00022706       0.00061085
Al       7.30703780       2.47098321      14.63772529        4      -0.00001533      -0.00123754       0.00017494
Al      10.17196972       2.45862698      14.62066228        4       0.00026430       0.00049410       0.00119941
Al       3.00075589       4.94330602      14.63894798        4       0.00000058       0.00067509      -0.00025351
Al       5.87660033       4.95807919      14.64245358        4      -0.00327331      -0.00382802      -0.00688460
Al       8.74889808       4.95536719      14.64541086        4      -0.00108943      -0.00118592      -0.00321557
Al      11.59890922       4.95112352      14.63242047        4       0.00054275       0.00018271       0.00138185
Al       4.44040050       7.44482137      14.67052827        4       0.00003963      -0.00036438      -0.00009983
Al       7.31053745       7.45104185      14.66193709        4       0.00029568      -0.00111777      -0.00003423
Al      10.18251118       7.44614854      14.67999307        4       0.00028126       0.00018215       0.00122768
Al      13.03067830       7.44302794      14.68251423        4      -0.00074834      -0.00060377      -0.00001621
Al       1.53671507       0.74818193      16.99289860        3       0.00628795       0.00557303       0.00622875
Al       4.39145348       0.73250456      17.00451058        3       0.00043043       0.00069235       0.00153925
Al       7.26615915       0.73581653      17.02961192        3       0.00051085      -0.00061789      -0.00067208
Al      10.15227700       0.75665450      17.01212036        3      -0.00422417      -0.00599081       0.00164770
Al       2.97043500       3.21623287      16.95458248        3      -0.01557647      -0.00672017       0.00176031
Al       5.82671741       3.20864797      16.94313624        3       0.00176340       0.00052495       0.00085684
Al       8.71759929       3.21033977      16.95210270        3      -0.00208877       0.00002910      -0.00178528
Al      11.56240342       3.22047636      16.95142077        3       0.00839324       0.00195482       0.00375049
Al       4.38925727       5.71139303      16.94482583        3       0.00103755       0.00077977       0.00089252
Al       7.28403932       5.72058110      16.94745892        3      -0.00072851      -0.00037302      -0.00086846
Al      10.15000826       5.72342972      16.97995637        3       0.00244092       0.00177196      -0.00018722
Al      12.99819271       5.71951784      16.97415968        3      -0.01380510      -0.00604980       0.00551021
Al       5.84583862       8.20987508      17.00537625        3      -0.00390835       0.00171535      -0.01067595
Al       8.71542255       8.21243049      17.00796687        3       0.00045775       0.00029208       0.00135453
Al      11.57465237       8.20602062      17.07688835        3       0.00050720       0.00038055       0.00139671
Al      14.41818791       8.20463285      17.01819186        3       0.00696297       0.01145395       0.01446984
Al       0.08441409       1.54101084      19.37578087        2      -0.00125149      -0.00248804      -0.00307551
Al       2.90346609       1.52814669      19.36528379        2      -0.00648515      -0.00389461      -0.00816596
Al       5.75229283       1.52389709      19.29883682        2       0.00347529       0.00002877       0.00114044
Al       8.66842566       1.52165733      19.31717083        2      -0.00029710      -0.00092022      -0.00302544
Al       1.48343970       4.00526796      19.27429015        2      -0.00193035      -0.00216864      -0.00655940
Al       4.33179620       4.00896910      19.23246045        2      -0.00112908      -0.00025519      -0.00550769
Al       7.23516543       4.00792073      19.19315168        2      -0.00320072       0.00200203       0.00423492
Al      10.11690282       4.01792122      19.23378186        2       0.00295093      -0.00017746      -0.00389650
Al       2.90467924       6.50708554      19.28125620        2       0.00174511      -0.00146471       0.00376329
Al       5.77907750       6.49527567      19.20511537        2       0.00098330       0.00108147       0.00642715
Al       8.67448720       6.51081554      19.25730558        2       0.00056805       0.00126448      -0.00883817
Al      11.52645357       6.48095822      19.37991371        2       0.00153474       0.00127924       0.00021407
Al       4.37646802       8.98579597      19.36377191        2      -0.00170154      -0.00012204      -0.00247025
Al       7.23484160       9.00516641      19.34508149        2      -0.00081422       0.00285768      -0.00700655
Al      10.07278786       8.97336373      19.44526159        2       0.00243373       0.00050677      -0.00039868
Al      12.95173554       8.98783403      19.51474127        2       0.00097648       0.00007762      -0.00001902
Al      -0.11034504      -0.26338545      21.91351747        1      -0.00120130      -0.00209072      -0.00508956
Al       2.67544718      -0.19801749      22.13950197        1       0.00216099       0.00129139      -0.00087267
Al       5.59449816      -0.09999367      21.90565862        1      -0.00229365      -0.00059225       0.00436853
Al       8.52838324      -0.09919273      22.05184792        1      -0.00047209      -0.00414082      -0.00181727
Al       1.38358446       2.41662375      22.02784019        1       0.00402692      -0.00017082       0.00409152
Al       4.26477468       2.40474139      21.64459722        1      -0.00169629      -0.00232445      -0.00248256
Al       7.11263846       2.35650461      21.58124390        1      -0.00143189       0.00628021       0.00516571
Al       9.99377240       2.32403576      21.68510326        1      -0.00134257       0.00348526      -0.00487728
Al       2.78420429       4.84083069      21.58255021        1       0.00227423      -0.00225935      -0.00176031
Al       5.68015846       4.81621022      21.49595201        1       0.00032900       0.00209888       0.00727087
Al       8.44368201       4.78693933      21.57006889        1       0.00504411       0.00425422      -0.00060276
Al      11.23310065       4.86989002      21.90304821        1       0.00389445       0.00041543      -0.00078182
Al       4.20726504       7.26304184      21.65102655        1       0.00041974       0.00416214      -0.00573886
Al       7.00807023       7.26527808      21.56273452        1       0.00345047       0.00186098      -0.00295546
Al       9.70657482       7.24686811      21.88248069        1       0.00086394      -0.00161377      -0.00125805
Al      12.78537419       7.27410367      21.90875418        1       0.00208884      -0.00275535      -0.00216984
C        5.01448350       5.15735419      24.85892898        0       0.02789023      -0.00820022       0.00841383
N        5.59809183       3.96835486      25.03368205        0      -0.01321657      -0.00505043      -0.00920966
C        6.92748021       4.27681096      25.13292634        0      -0.02416101       0.00514575      -0.00119168
N        7.20708664       5.58322394      25.02485967        0       0.00341306       0.02152660      -0.01156705
N        5.96454297       6.13566730      24.88519158        0      -0.01041864       0.00900329       0.00487634
H        3.96505811       5.35027934      24.65155064        0      -0.00395623      -0.00347933      -0.00639194
H        7.71606101       3.52997193      25.21556396        0       0.01178105      -0.00236749       0.00908259
H        5.85656737       7.05997259      24.46673983        0       0.00385908      -0.00397757       0.00568999
