104
Lattice="11.45512985522207 0.0 0.0 5.727564927611035 9.92043345827187 0.0 0.0 0.0 31.691342951089922" Properties=species:S:1:pos:R:3:tags:I:1:forces:R:3 energy=-420.2264404296875 free_energy=-420.2264404296875 stress="0.0043548839166760445 9.061768651008606e-07 -3.5297125577926636e-07 9.061768651008606e-07 0.004418196622282267 2.2775493562221527e-06 -3.5297125577926636e-07 2.2775493562221527e-06 0.004661503713577986" pbc="T T F"
Al       1.42537460       0.83314707      10.02197751        6       0.00033559       0.00005396      -0.00021759
Al       4.28925776       0.83306282      10.02241271        6       0.00037211      -0.00007561       0.00014353
Al       7.15294187       0.83300262      10.02257825        6       0.00030269      -0.00017570       0.00015404
Al      10.01663872       0.83311303      10.02227066        6       0.00020945      -0.00008053      -0.00023039
Al       2.85717581       3.31340133      10.02204764        6       0.00031193       0.00009518      -0.00014125
Al       5.72099681       3.31317840      10.02208506        6       0.00018791      -0.00006808      -0.00035182
Al       8.58478185       3.31319130      10.02197258        6       0.00023863      -0.00008113      -0.00053043
Al      11.44856320       3.31338980      10.02186846        6       0.00028431       0.00012025      -0.00055344
Al       4.28897793       5.79362565      10.02228775        6       0.00019950       0.00019601       0.00026555
Al       7.15284418       5.79350426      10.02215405        6       0.00027891       0.00016512      -0.00007993
Al      10.01683574       5.79356581      10.02220887        6       0.00036212       0.00028936       0.00019225
Al      12.88042579       5.79368372      10.02253002        6       0.00034889       0.00025065       0.00061521
Al       5.72091373       8.27363471      10.02232393        6       0.00026333       0.00016758       0.00028871
Al       8.58494485       8.27359307      10.02231599        6       0.00038504       0.00014466       0.00032883
Al      11.44877948       8.27360755      10.02282137        6       0.00041426       0.00012637       0.00089654
Al      14.31227080       8.27365969      10.02281208        6       0.00025271       0.00019080       0.00064728
Al       0.01217598       1.65228280      12.38975238        5       0.00130083      -0.00141824      -0.00598187
Al       2.87525081       1.65245892      12.38997867        5      -0.00052572      -0.00180784      -0.00527693
Al       5.73905487       1.65112108      12.39064497        5      -0.00084840      -0.00306133      -0.00721199
Al       8.60254434       1.65106121      12.39103278        5       0.00137145      -0.00275859      -0.00676932
Al       1.44359259       4.13495042      12.39193104        5       0.00048331       0.00009629      -0.00459078
Al       4.30577117       4.13460586      12.38889754        5      -0.00082671      -0.00031206      -0.00685404
Al       7.17058399       4.13351105      12.38648415        5       0.00022581      -0.00035529      -0.00798724
Al      10.03660266       4.13495862      12.38890770        5       0.00117342       0.00026954      -0.00597067
Al       2.87407230       6.61667842      12.39907656        5      -0.00036496       0.00035588      -0.00244621
Al       5.73795239       6.61625058      12.39186792        5      -0.00059365       0.00155429      -0.00360307
Al       8.60454337       6.61680087      12.39155506        5       0.00187784       0.00141734      -0.00230781
Al      11.46867215       6.61680760      12.39955394        5       0.00066382       0.00077206      -0.00095749
Al       4.30629913       9.09448846      12.39758225        5      -0.00021884      -0.00162211      -0.00370661
Al       7.17148456       9.09518234      12.39382646        5       0.00074912      -0.00089406      -0.00438493
Al      10.03634024       9.09485641      12.39754551        5       0.00074856      -0.00182782      -0.00222851
Al      12.89872974       9.09352251      12.40220062        5      -0.00034562      -0.00211815      -0.00270114
Al       0.00861943      -0.00049208      14.68058659        4       0.00110851      -0.00107819      -0.00427584
Al       2.87080506      -0.00033552      14.68383447        4       0.00092911      -0.00105881      -0.00527465
Al       5.73384377      -0.00482442      14.69086067        4      -0.00060069      -0.00203486      -0.00724693
Al       8.59729353      -0.00565498      14.68850917        4       0.00238745      -0.00173737      -0.00656557
Al       1.43888643       2.47605431      14.67307324        4       0.00087500      -0.00056729      -0.00262346
Al       4.30003858       2.47436994      14.66474099        4       0.00025696      -0.00067219      -0.00049840
Al       7.16631230       2.47045546      14.66329146        4       0.00074599      -0.00105550      -0.00233930
Al      10.03535945       2.47465386      14.66365136        4       0.00103726      -0.00050215      -0.00012096
Al       2.86755572       4.96204522      14.67389264        4       0.00057122      -0.00081700      -0.00144371
Al       5.73268711       4.96126380      14.66093846        4       0.00052985      -0.00013863      -0.00270384
Al       8.60174402       4.96117184      14.65945822        4       0.00108838       0.00021830      -0.00087144
Al      11.46677360       4.96179264      14.67592716        4       0.00097133      -0.00055570      -0.00090690
Al       4.29649810       7.44428708      14.68659735        4       0.00097964      -0.00039210      -0.00556497
Al       7.16727355       7.44255045      14.67298646        4       0.00084113      -0.00007133      -0.00075827
Al      10.03570949       7.44479310      14.68973928        4       0.00118792      -0.00023060      -0.00434904
Al      12.89259821       7.44455748      14.70616397        4       0.00126010      -0.00182085      -0.00855750
Al       1.43172494       0.81554585      16.98274469        3       0.00085015       0.00080623       0.00565217
Al       4.28827287       0.81213608      16.97704219        3      -0.00019082      -0.00203337       0.00844498
Al       7.15972448       0.79268792      16.97352472        3       0.00098337       0.00476695       0.00410019
Al      10.03040285       0.81132663      16.96908521        3       0.00445406      -0.00032913       0.01185288
Al       2.85826259       3.29240102      16.95446859        3      -0.00140305      -0.00222939       0.01330079
Al       5.72311345       3.29876101      16.92888131        3       0.00417759      -0.00324117       0.01442257
Al       8.59960514       3.29569963      16.92296031        3       0.00209491       0.00029037       0.01965822
Al      11.46101806       3.29355998      16.96150879        3       0.00382215      -0.00142032       0.00949962
Al       4.28980433       5.78520676      16.95478958        3      -0.00015180       0.00099580       0.00423499
Al       7.15762026       5.77906386      16.94507806        3       0.00235927       0.00085486       0.00353596
Al      10.03063445       5.78379955      16.95508384        3       0.00426829       0.00154796       0.00935302
Al      12.89067261       5.78320751      16.98399291        3       0.00001619      -0.00173644       0.01265937
Al       5.72418821       8.26632382      16.96664032        3       0.00359208       0.00654159       0.01006782
Al       8.59525422       8.26706011      16.97158999        3       0.00248791       0.00542017       0.01022745
Al      11.46090028       8.26871997      17.02069883        3      -0.00210136      -0.00165629       0.00264390
Al      14.30838056       8.26349342      17.01704091        3       0.00737717      -0.00188971       0.00302872
Al       0.00687748       1.65379542      19.29632228        2       0.00677031      -0.00430472      -0.01240787
Al       2.85175523       1.65519924      19.29324528        2      -0.00057830      -0.00206244      -0.00579049
Al       5.72509046       1.67012248      19.20441650        2       0.00115170      -0.00461998       0.00502520
Al       8.59717698       1.67220027      19.20037024        2       0.00077390      -0.00605744       0.00041562
Al       1.43598973       4.12321101      19.27519719        2       0.00230047      -0.00095276      -0.00779663
Al       4.27630513       4.13498284      19.19868947        2       0.00746892       0.00107651       0.00165835
Al       7.17351381       4.11582055      19.19972832        2      -0.00357676       0.00842642      -0.00474199
Al      10.03828791       4.13255531      19.21871610        2      -0.00326962       0.00341449      -0.01031148
Al       2.87474420       6.61016718      19.30225084        2       0.00014349       0.00295456      -0.00249883
Al       5.73235629       6.63870485      19.20552555        2       0.00118266      -0.00816758       0.00558891
Al       8.59668158       6.63076573      19.20410515        2       0.00057822      -0.00759720       0.00806395
Al      11.45773290       6.61038647      19.29666598        2       0.00207233       0.00216231      -0.00827643
Al       4.30862282       9.10404403      19.30712268        2      -0.00259371      -0.00336739       0.00201219
Al       7.16735649       9.10427346      19.28626717        2       0.00024649      -0.00200229      -0.00111760
Al      10.01693371       9.09992675      19.35077360        2       0.00103193       0.00031519       0.00052339
Al      12.88553650       9.09964959      19.34339062        2       0.00238215      -0.00126526       0.00109505
Al      -0.03953112      -0.05935774      21.77335278        1      -0.00245467      -0.00277964       0.00751484
Al       2.87249188      -0.03905853      21.78975475        1      -0.00326865       0.00083854       0.00681965
Al       5.70556463       0.04824549      21.72082203        1      -0.00202247       0.00090524       0.00593814
Al       8.56125571       0.04624663      21.71820374        1      -0.00191060       0.00027036       0.00731430
Al       1.44233473       2.53950209      21.77316368        1       0.00008111       0.00134531       0.01124000
Al       4.31794445       2.50770276      21.53340055        1       0.00262751      -0.00010662       0.00335813
Al       7.16863746       2.53140018      21.57911153        1      -0.00170959       0.00017664      -0.00378559
Al      10.01354750       2.50448537      21.52710297        1      -0.00398593      -0.00257096       0.02621709
Al       2.90738182       4.97315941      21.63918279        1       0.00528529      -0.00087759      -0.00712185
Al       5.75827663       4.94423624      21.50581880        1      -0.00201062       0.00315878      -0.02632333
Al       8.58159972       4.94973480      21.54485963        1      -0.00041813       0.00189963      -0.01699721
Al      11.44263170       4.96024861      21.59622741        1      -0.00976903       0.00212728      -0.00122084
Al       4.31661371       7.41136999      21.72716480        1      -0.00278346      -0.00372949      -0.00149826
Al       7.13923807       7.38623452      21.62008214        1      -0.00086207      -0.00071642      -0.01257442
Al       9.94972153       7.37407831      21.72115820        1      -0.00448629      -0.00551050      -0.00063116
Al      12.89549299       7.36997028      21.82649731        1      -0.00100644      -0.00299697       0.00917558
C        6.08140033       3.94839413      24.90062715        0      -0.05012145      -0.02893561      -0.01795623
N        7.28313021       3.37210166      24.91290033        0       0.03563187       0.05294295       0.02995370
C        8.14460828       4.44246960      24.96423611        0       0.01432756      -0.06889275      -0.00868191
N        7.54681647       5.64009899      24.95479196        0       0.04550221      -0.06812274      -0.01510405
N        6.21614869       5.30530370      24.95149142        0      -0.02400208       0.03484273      -0.00831260
H        5.13187320       3.42971879      24.80424036        0      -0.04575795       0.02688107      -0.02725857
H        9.22778563       4.31657287      24.94097215        0      -0.01642762       0.06122896       0.02698659
H        5.54709272       5.95576397      24.54037124        0      -0.00296431       0.03688489       0.02447779
