104
Lattice="11.45512985522207 0.0 0.0 5.727564927611035 9.92043345827187 0.0 0.0 0.0 31.691342951089922" Properties=species:S:1:pos:R:3:tags:I:1:forces:R:3 energy=-419.7218322753906 free_energy=-419.7218322753906 stress="0.007189529947936535 6.640329957008362e-07 -6.612390279769897e-08 6.640329957008362e-07 0.007241762708872557 1.4067627489566803e-06 -6.612390279769897e-08 1.4067627489566803e-06 0.007377545349299908" pbc="T T F"
Al       1.61857151       0.85336931       9.94194100        6       0.00015659      -0.00050476      -0.00038383
Al       4.48374194       0.85232550       9.95718516        6       0.00017872      -0.00041066      -0.00023604
Al       7.34411315       0.85152109       9.95996869        6       0.00009160      -0.00041573      -0.00038871
Al      10.20714707       0.85285578       9.94699117        6       0.00007557      -0.00055782      -0.00062290
Al       3.04838321       3.33446406       9.93308214        6       0.00021636      -0.00053136      -0.00043300
Al       5.91353981       3.33499911       9.94336361        6       0.00004155      -0.00046973      -0.00043300
Al       8.77557477       3.33478569       9.93320514        6       0.00000164      -0.00048914      -0.00058027
Al      11.63920469       3.33455462       9.92561738        6       0.00005638      -0.00043876      -0.00059106
Al       4.47813792       5.81596479       9.95438073        6       0.00008646      -0.00053207      -0.00056740
Al       7.34405263       5.81794796       9.95430064        6       0.00003279      -0.00061763      -0.00071057
Al      10.20733057       5.81670394       9.95347534        6       0.00004803      -0.00042501      -0.00057955
Al      13.06940627       5.81568109       9.95192123        6       0.00012025      -0.00045027      -0.00047645
Al       5.91224840       8.29497617       9.96562045        6       0.00000980      -0.00073919      -0.00119017
Al       8.77825538       8.29662025       9.97253270        6       0.00012733      -0.00070625      -0.00083580
Al      11.63993772       8.29459851       9.98024643        6       0.00009588      -0.00061573      -0.00051664
Al      14.49966738       8.29388778       9.97870114        6       0.00003127      -0.00065549      -0.00095006
Al       0.20055300       1.64275150      12.33860835        5      -0.00085397      -0.00395010       0.00083893
Al       3.06177075       1.64096591      12.35047445        5       0.00002925      -0.00375543      -0.00192497
Al       5.92515938       1.63704084      12.36133263        5       0.00006883      -0.00097676       0.00085810
Al       8.79055586       1.64245245      12.34519824        5      -0.00168081      -0.00328902       0.00265803
Al       1.62832909       4.11374736      12.33570629        5      -0.00056688       0.00109705      -0.00112738
Al       4.49007097       4.11465668      12.33979168        5       0.00082762      -0.00045426       0.00126618
Al       7.35996057       4.11656987      12.33832654        5      -0.00065173      -0.00094601       0.00301065
Al      10.22488458       4.11407938      12.32900220        5      -0.00140817       0.00104521       0.00417064
Al       3.05629035       6.59785201      12.36134151        5      -0.00015577       0.00032726       0.00011146
Al       5.92684550       6.59777946      12.35339106        5      -0.00032834       0.00045855      -0.00265531
Al       8.79757747       6.59923959      12.35942276        5       0.00010050       0.00039113      -0.00008219
Al      11.65564231       6.59819850      12.37035286        5      -0.00056341       0.00117221       0.00101065
Al       4.49317937       9.08360419      12.35340142        5      -0.00048508      -0.00121399       0.00275447
Al       7.36300261       9.08394685      12.35837099        5      -0.00068348      -0.00112626      -0.00081432
Al      10.22649812       9.08284972      12.38311350        5      -0.00083310      -0.00156282      -0.00119392
Al      13.08131260       9.08104540      12.38314139        5       0.00050297      -0.00092783      -0.00075477
Al       0.18105384      -0.04579473      14.64728562        4       0.00055048      -0.00002795       0.00097683
Al       3.05010167      -0.04739058      14.67480609        4       0.00009652      -0.00020116       0.00058713
Al       5.91493243      -0.05195053      14.70974594        4      -0.00104458      -0.00051750      -0.00117706
Al       8.77807358      -0.04140864      14.66755778        4      -0.00014995      -0.00060027       0.00106142
Al       1.61529941       2.43527769      14.64760778        4      -0.00107547      -0.00282287      -0.00158667
Al       4.47234819       2.42204427      14.65420254        4       0.00024830      -0.00032205       0.00044739
Al       7.34846535       2.42814640      14.65680796        4      -0.00053613      -0.00119617      -0.00041020
Al      10.20823346       2.43127477      14.64525247        4      -0.00019419      -0.00098671      -0.00031107
Al       3.03343806       4.90412390      14.63543280        4       0.00030323      -0.00014951       0.00129811
Al       5.91019151       4.90832916      14.63299864        4      -0.00057839      -0.00138049      -0.00043362
Al       8.78151464       4.91125609      14.64089423        4       0.00008124      -0.00079211       0.00040418
Al      11.62885151       4.90459918      14.63554984        4       0.00223278       0.00183352       0.00413697
Al       4.47448485       7.39837942      14.64688605        4      -0.00017533      -0.00098041       0.00027533
Al       7.35590403       7.39653296      14.64739466        4      -0.00036281      -0.00020939       0.00120284
Al      10.20982379       7.39940234      14.69150327        4       0.00123847      -0.00043861       0.00054593
Al      13.06314858       7.39967152      14.69244011        4      -0.00159659      -0.00340562      -0.00194136
Al       1.55938903       0.72415449      16.98562017        3       0.00055182      -0.00088106       0.00032490
Al       4.41970879       0.69029105      17.02892896        3       0.00109798      -0.00010624       0.00081976
Al       7.29568003       0.69637140      17.02211150        3       0.00020183       0.00042192       0.00122554
Al      10.16119569       0.71977707      16.99754788        3      -0.00037772      -0.00060444      -0.00070476
Al       2.98173596       3.17444694      16.97622291        3       0.00029890      -0.00014697       0.00027850
Al       5.85884082       3.16680324      16.94611583        3       0.00002079      -0.00045814       0.00258262
Al       8.73797217       3.17873214      16.97069573        3       0.00008593      -0.00033073       0.00066801
Al      11.58750038       3.18576827      16.95742788        3       0.00067085       0.00205692       0.00702466
Al       4.41272600       5.66007462      16.92707035        3       0.00020876      -0.00025568       0.00067755
Al       7.30072545       5.66934985      16.93103605        3       0.00043041      -0.00009823       0.00074627
Al      10.16414876       5.67038950      16.98600357        3       0.00021822      -0.00035543       0.00010714
Al      13.00265298       5.66360919      16.99315449        3      -0.00409555      -0.00578120      -0.01529641
Al       5.86969612       8.16049048      16.94451122        3       0.00014287       0.00000093       0.00071719
Al       8.75062184       8.17076171      17.00870100        3       0.00008411      -0.00019512       0.00063938
Al      11.59080507       8.15538161      17.08774384        3       0.00011336      -0.00013997       0.00055391
Al      14.44052690       8.15762518      16.99502560        3      -0.00001260      -0.00005657      -0.00035182
Al       0.08076556       1.53061827      19.33015188        2       0.00012853      -0.00261083       0.00158284
Al       2.93997378       1.46796886      19.32064080        2      -0.00191912       0.00130294       0.00099815
Al       5.79309714       1.47073167      19.32305642        2       0.00172210       0.00034303      -0.00309563
Al       8.67956418       1.48913974      19.35165419        2      -0.00147566      -0.00338919      -0.00054936
Al       1.49061589       3.93502227      19.31694719        2      -0.00077787      -0.00020179      -0.00208450
Al       4.36214647       3.95890372      19.23648463        2      -0.00345105       0.00116174      -0.00195387
Al       7.24030636       3.97519231      19.20861802        2       0.00236313      -0.00052283       0.00179079
Al      10.13221838       3.94819108      19.28509640        2      -0.00046421       0.00145718      -0.00145634
Al       2.91393979       6.44746461      19.24270370        2       0.00225256       0.00002836       0.00032566
Al       5.79566402       6.45025287      19.18452780        2       0.00106582       0.00092552      -0.00031008
Al       8.68553567       6.47934288      19.23165750        2       0.00060008      -0.00517519       0.00437727
Al      11.51870029       6.40918704      19.34978582        2       0.00095294       0.00289293       0.00247219
Al       4.38677624       8.94547977      19.24915646        2       0.00058704       0.00075905       0.00234146
Al       7.23992163       8.97600737      19.25510804        2       0.00068262       0.00069719       0.00076852
Al      10.12014655       8.91824416      19.55278054        2       0.00027692       0.00002672      -0.00137277
Al      12.98286073       8.95846632      19.43431992        2       0.00329125       0.00203408      -0.00138222
Al      -0.08686847      -0.09669789      21.60339981        1      -0.00241888      -0.00418737       0.00581746
Al       2.62151808      -0.22965484      22.05046041        1       0.00035730       0.00188457      -0.00208141
Al       5.64228264      -0.18344111      22.15170237        1       0.00034422       0.00331850      -0.00261150
Al       8.57005502      -0.33336105      22.11534317        1      -0.00133100       0.00253317      -0.00616562
Al       1.41707276       2.33046267      22.11108232        1       0.00304963       0.00450159      -0.00726236
Al       4.26671746       2.30976608      21.62064799        1      -0.00243855       0.00184157       0.00035020
Al       7.09211560       2.28034547      21.61776930        1       0.00618821       0.00410963       0.00154915
Al       9.86577011       2.28775781      21.82873887        1       0.00279060       0.00071691       0.00245249
Al       2.85891518       4.78139688      21.54608269        1       0.00056628       0.00324065       0.00034513
Al       5.72013488       4.77408209      21.50960057        1       0.00005478      -0.00041826      -0.00260738
Al       8.52231511       4.76411002      21.54950003        1       0.00341810       0.00116032      -0.00086094
Al      11.42762190       4.87595701      22.12482243        1       0.00113595       0.00090811      -0.00533364
Al       4.29031552       7.24440573      21.50883638        1      -0.00214438       0.00253876      -0.01146953
Al       7.04516507       7.25990801      21.51069454        1       0.00355956      -0.00277774       0.00301426
Al       9.76152155       7.21885095      21.94106596        1       0.00171364       0.00005981      -0.00429501
Al      12.81354619       7.26304583      21.65298813        1       0.00005869       0.00211729       0.00096489
C        4.51363841       5.70690330      24.75546937        0       0.01838593       0.00351503       0.00597492
N        4.94938230       4.44577691      24.80664756        0       0.00061722       0.00528818       0.00644968
C        6.30981964       4.58123450      24.91231872        0       0.00005620       0.00478104       0.00579022
N        6.74577687       5.84741408      24.89620048        0      -0.00960836       0.00201407       0.00288866
N        5.57634657       6.55712156      24.83611009        0      -0.00210552      -0.00332528       0.00018456
H        3.49292086       6.04024463      24.58825808        0      -0.01422731      -0.00124633      -0.00023143
H        7.00139810       3.73889333      24.93113500        0      -0.00317163       0.00495484       0.00250408
H        5.58360492       7.51050007      24.47590179        0      -0.00405314       0.00415107      -0.00153948
