104
Lattice="11.45512985522207 0.0 0.0 5.727564927611035 9.92043345827187 0.0 0.0 0.0 31.691342951089922" Properties=species:S:1:pos:R:3:tags:I:1:forces:R:3 energy=-419.9051818847656 free_energy=-419.9051818847656 stress="0.008091314695775509 5.825422704219818e-07 -2.8172507882118225e-07 5.825422704219818e-07 0.008132321760058403 1.989305019378662e-06 -2.8172507882118225e-07 1.989305019378662e-06 0.00832503754645586" pbc="T T F"
Al       1.43237098       0.84460002       9.89236944        6       0.00056749       0.00001233       0.00018538
Al       4.29683132       0.83980605       9.90958289        6       0.00061843       0.00029022       0.00003080
Al       7.15958452       0.84138619       9.92746375        6       0.00053992       0.00026186      -0.00013835
Al      10.02136448       0.84669762       9.90496583        6       0.00059596      -0.00009518       0.00010211
Al       2.86082364       3.32629244       9.91279010        6       0.00076507       0.00014448      -0.00004597
Al       5.72645960       3.32172177       9.91598211        6       0.00053816       0.00036173       0.00014832
Al       8.59031041       3.32314179       9.91095330        6       0.00043345       0.00035234       0.00002344
Al      11.45434890       3.32604954       9.90633989        6       0.00051159       0.00014112       0.00007283
Al       4.29043451       5.80936288       9.94963768        6       0.00071830      -0.00019337      -0.00040300
Al       7.15506856       5.80743423       9.93232719        6       0.00054405      -0.00014131      -0.00010106
Al      10.02142522       5.80606877       9.93955970        6       0.00040863      -0.00003857      -0.00037273
Al      12.88319100       5.81011224       9.95215848        6       0.00059101      -0.00018551      -0.00082617
Al       5.72466298       8.28812550       9.92631735        6       0.00059447      -0.00008854       0.00008914
Al       8.59183304       8.28487898       9.92013626        6       0.00050768      -0.00009357       0.00008767
Al      11.45643160       8.28702902       9.95569873        6       0.00040949      -0.00030624      -0.00065333
Al      14.31446440       8.28904927       9.95672645        6       0.00078777      -0.00024472      -0.00040190
Al       0.03996941       1.65050900      12.31266394        5       0.00074379       0.00217386       0.00481734
Al       2.90804062       1.65288608      12.31296294        5      -0.00071212       0.00122971       0.00533817
Al       5.76571597       1.65245439      12.33500201        5       0.00051573       0.00076457       0.00003287
Al       8.62368606       1.65262603      12.32597480        5       0.00408841       0.00065285       0.00299908
Al       1.47560772       4.13625534      12.33652549        5      -0.00093586      -0.00107890      -0.00161267
Al       4.33735612       4.13167729      12.34046784        5      -0.00045059       0.00059006      -0.00308404
Al       7.19534000       4.13410554      12.33358231        5       0.00325270       0.00059345      -0.00380753
Al      10.05947016       4.13298297      12.33368318        5       0.00277422       0.00030319      -0.00399817
Al       2.90488907       6.62027955      12.36394089        5       0.00019398      -0.00096151      -0.00042929
Al       5.76670951       6.61858903      12.35002533        5       0.00178114       0.00089705      -0.00253542
Al       8.62962326       6.62265613      12.34669877        5       0.00193609      -0.00088475      -0.00330353
Al      11.49346928       6.62317901      12.36133149        5       0.00165291      -0.00200937      -0.00236088
Al       4.33166002       9.09748788      12.35217554        5       0.00275589       0.00209732      -0.00229434
Al       7.20038105       9.10033614      12.33215778        5       0.00050984       0.00018375      -0.00059063
Al      10.06686388       9.10064498      12.35137460        5      -0.00123640       0.00004990      -0.00205636
Al      12.92463282       9.10113011      12.37110427        5       0.00212234       0.00017720      -0.00201012
Al       0.05368834      -0.00548384      14.64342709        4       0.00050015       0.00052067       0.00098374
Al       2.91337751      -0.00734530      14.64455838        4       0.00053056       0.00047945       0.00079457
Al       5.77154169      -0.00800870      14.67947048        4       0.00110664      -0.00026175       0.00047880
Al       8.64756001      -0.00766294      14.67535794        4       0.00044526       0.00032227       0.00063848
Al       1.48406579       2.46229409      14.61969730        4       0.00033488       0.00055298       0.00084133
Al       4.34086063       2.45477362      14.64383656        4      -0.00029806       0.00073733      -0.00088596
Al       7.20252604       2.46246751      14.63671120        4       0.00171813      -0.00138824      -0.00190848
Al      10.07172633       2.45751005      14.62783725        4       0.00131253       0.00069246       0.00025968
Al       2.91571667       4.94930331      14.65342277        4      -0.00176020       0.00000879      -0.00144605
Al       5.77512280       4.94924857      14.64760562        4      -0.00277113       0.00023280      -0.01190434
Al       8.63849967       4.95657470      14.63858215        4       0.00618040      -0.00183631      -0.00650457
Al      11.50461502       4.95306159      14.63400502        4       0.00101736       0.00018890       0.00129463
Al       4.35194146       7.44134104      14.66691170        4      -0.00120599       0.00050163       0.00028523
Al       7.21317721       7.45278435      14.65434231        4       0.00032150      -0.00007982      -0.00082866
Al      10.07284333       7.44648356      14.66245523        4       0.00282460       0.00017079       0.00243142
Al      12.93779081       7.44107863      14.67258734        4       0.00008278       0.00129444       0.00529858
Al       1.48803361       0.81345295      16.98113367        3       0.00003341      -0.00047949       0.00155673
Al       4.33037621       0.79623623      17.00205711        3       0.00005886      -0.00022933       0.00067068
Al       7.20764595       0.79051714      17.01187417        3       0.00038907      -0.00090595      -0.00030699
Al      10.09354118       0.79973861      17.00964664        3       0.00053187       0.00028463      -0.00179199
Al       2.89830748       3.26689605      16.96706604        3       0.00033026       0.00024125       0.00030429
Al       5.76630526       3.25709281      16.93480008        3       0.00033839       0.00263338       0.00132002
Al       8.64618210       3.25776412      16.92320009        3       0.00253002       0.00496382       0.00720187
Al      11.51514045       3.27101491      16.94692574        3       0.00053354       0.00044211       0.00093116
Al       4.31344086       5.77265366      16.95435910        3       0.00928641      -0.00057247       0.00233786
Al       7.20679649       5.77741211      16.91316198        3       0.00159377      -0.00363473       0.01819057
Al      10.09749867       5.77953834      16.95302500        3      -0.00107325      -0.00010691       0.00088126
Al      12.93067548       5.77863102      16.97700578        3       0.00019152       0.00027535       0.00090183
Al       5.76898640       8.26714996      16.98741497        3       0.00236971       0.00144182       0.00054036
Al       8.64876672       8.27891994      16.99486733        3       0.00052862       0.00030241       0.00054685
Al      11.51529156       8.27819940      17.06170006        3      -0.00000848      -0.00132343      -0.00087579
Al      14.36422750       8.28644652      17.03404638        3      -0.00192748      -0.01134361       0.00043924
Al       0.07725835       1.61564739      19.36062702        2      -0.01012283      -0.00763216      -0.00471983
Al       2.85696430       1.61428830      19.37971180        2      -0.00016402      -0.00363737      -0.01110843
Al       5.72702300       1.59971151      19.25899083        2       0.00165355       0.00057004       0.00362237
Al       8.64592641       1.58903197      19.27189731        2      -0.00163819      -0.00048243      -0.00975709
Al       1.46450298       4.09406178      19.29542210        2       0.00149554      -0.00044394      -0.00465695
Al       4.31755347       4.06871140      19.21633956        2      -0.00498952       0.00423246      -0.00308155
Al       7.19799044       4.10272679      19.18392582        2       0.00371177      -0.00363883      -0.00958220
Al      10.07959023       4.07474767      19.21344577        2      -0.00654105       0.00404617      -0.00567291
Al       2.88051744       6.59418497      19.27838701        2       0.00452553       0.00202115       0.00855868
Al       5.75383205       6.59272187      19.21074905        2       0.00061132       0.00776154      -0.00433136
Al       8.63477584       6.59908116      19.19155963        2      -0.00332951      -0.00031523       0.01891173
Al      11.49873322       6.60241922      19.33572341        2       0.00175770       0.00413248      -0.00365705
Al       4.34157288       9.09108578      19.39200275        2      -0.00138039      -0.00577568      -0.00440144
Al       7.20570849       9.10741843      19.33338022        2       0.00084590      -0.00232132      -0.00682501
Al      10.05660258       9.07882479      19.44297948        2       0.00054972      -0.00157113      -0.00266459
Al      12.92582465       9.06283786      19.52897988        2       0.00083468      -0.00006771       0.00002398
Al      -0.15497767      -0.17011151      22.05252604        1      -0.00187434      -0.00488967      -0.00174259
Al       2.75885461      -0.03137981      22.07342339        1       0.00120771      -0.00379966      -0.00396894
Al       5.61019074       0.00008220      21.94725722        1      -0.00439622       0.00077333      -0.00448910
Al       8.44493137       0.02555051      21.97857365        1       0.00058270      -0.00236086      -0.00167004
Al       1.40516083       2.59487640      22.16993737        1       0.00460099      -0.00814127      -0.00777430
Al       4.26565553       2.47499244      21.57647404        1       0.00625568      -0.00442341       0.00779163
Al       7.11426070       2.48893304      21.53510588        1       0.00019801      -0.00129180       0.00747721
Al      10.04423214       2.42537376      21.59572298        1      -0.00557566      -0.00057131      -0.00074949
Al       2.87268500       4.92519346      21.55691066        1       0.00746493      -0.00023507       0.01684394
Al       5.73531892       4.93728283      21.42185325        1      -0.00208549      -0.00245272      -0.00078525
Al       8.54972817       4.85688544      21.53531983        1      -0.00197406       0.00235270       0.00517333
Al      11.42038267       4.91964507      21.55248270        1      -0.00435866      -0.00728879       0.01259378
Al       4.19605317       7.35664386      21.62519778        1       0.00405297       0.00967861       0.01046231
Al       7.10487890       7.38078848      21.55171278        1      -0.00165981       0.00252128       0.00055419
Al       9.85371418       7.26406534      21.75453604        1      -0.00564989       0.00059661       0.00024045
Al      12.78654184       7.27910231      22.17073340        1       0.00902507       0.00833833      -0.00817514
C        5.77738098       4.36043336      24.74535908        0      -0.02533317       0.01788651      -0.01438504
N        6.72399845       3.47148720      25.05920611        0      -0.01853463      -0.01368725       0.00505184
C        7.82113714       4.25223674      25.30460854        0       0.02762111      -0.02652933       0.03687700
N        7.62193009       5.56465768      25.13216032        0       0.00906368       0.03908968      -0.02634325
N        6.30159501       5.61986299      24.79637807        0      -0.02343278      -0.00780827       0.01845769
H        4.76707659       4.14487411      24.40610837        0      -0.00962519      -0.00475603       0.01060181
H        8.78369264       3.86176798      25.62783002        0      -0.00669160      -0.01178036      -0.02811071
H        5.90589988       6.43362736      24.32585568        0      -0.00086904       0.02281922      -0.00016864
