104
Lattice="11.45512985522207 0.0 0.0 5.727564927611035 9.92043345827187 0.0 0.0 0.0 31.691342951089922" Properties=species:S:1:pos:R:3:tags:I:1:forces:R:3 energy=-420.08465576171875 free_energy=-420.08465576171875 stress="0.003669203957542777 9.825453162193298e-08 -3.548339009284973e-07 9.825453162193298e-08 0.003755527315661311 2.6836059987545013e-06 -3.548339009284973e-07 2.6836059987545013e-06 0.004073726944625378" pbc="T T F"
Al       1.42385988       0.83636809      10.03488922        6       0.00015957      -0.00038745      -0.01275915
Al       4.28792636       0.83593757      10.03633469        6       0.00007520      -0.00097031      -0.01313105
Al       7.15139854       0.83575469      10.03704567        6       0.00026305      -0.00065806      -0.01140979
Al      10.01478413       0.83620492      10.03547074        6       0.00031079      -0.00014127      -0.01194675
Al       2.85551183       3.31690538      10.03534114        6      -0.00045851      -0.00018159      -0.01076986
Al       5.71923928       3.31612584      10.03506926        6       0.00008232      -0.00072373      -0.01155185
Al       8.58311254       3.31614567      10.03466339        6       0.00053703      -0.00059598      -0.01085786
Al      11.44692548       3.31695433      10.03444397        6       0.00034146      -0.00018230      -0.00992310
Al       4.28708632       5.79750394      10.03721145        6      -0.00047323       0.00025307      -0.00838798
Al       7.15114982       5.79718081      10.03610196        6      -0.00016736       0.00023048      -0.00936757
Al      10.01547956       5.79747296      10.03696605        6       0.00028974      -0.00012085      -0.00815376
Al      12.87889768       5.79768273      10.03840491        6      -0.00014668       0.00013337      -0.00674970
Al       5.71914995       8.27734608      10.03700999        6       0.00002597       0.00033967      -0.01008100
Al       8.58366345       8.27721503      10.03696417        6       0.00023563       0.00016031      -0.01095527
Al      11.44753331       8.27725133      10.03935791        6       0.00027431      -0.00006581      -0.00799029
Al      14.31051576       8.27742192      10.03893176        6      -0.00018014       0.00010270      -0.00755699
Al       0.01776582       1.64728617      12.36822883        5      -0.00030323       0.00285100       0.00531005
Al       2.87707610       1.64667820      12.36968163        5      -0.00053278       0.00268626       0.00427446
Al       5.74085776       1.64184759      12.36805123        5      -0.00018800       0.00344404       0.00434882
Al       8.60792461       1.64278438      12.36914740        5       0.00113632       0.00295516       0.00383527
Al       1.44735998       4.13440190      12.37631971        5      -0.00027528       0.00037161       0.00133929
Al       4.30595610       4.13344621      12.36710091        5       0.00023555       0.00075779       0.00273109
Al       7.17441888       4.13100540      12.36208384        5       0.00093889       0.00115742       0.00336770
Al      10.04376341       4.13480217      12.36915512        5       0.00033229       0.00016538       0.00221422
Al       2.87536087       6.61862472      12.39082593        5       0.00032477      -0.00152996      -0.00155904
Al       5.73935097       6.62000912      12.37857097        5       0.00129075       0.00036076      -0.00103966
Al       8.61206010       6.62075505      12.38087138        5      -0.00147451      -0.00091229      -0.00165399
Al      11.47438911       6.61905576      12.39509186        5       0.00006428      -0.00254647      -0.00592888
Al       4.30892728       9.09114709      12.38485608        5       0.00208685       0.00240312      -0.00067955
Al       7.17608694       9.09328563      12.37910313        5      -0.00072138       0.00115425       0.00168574
Al      10.04107902       9.09085416      12.38796192        5      -0.00290746       0.00152217      -0.00405221
Al      12.90123516       9.08776450      12.39417271        5       0.00130715       0.00155176      -0.00343053
Al       0.01723029      -0.00507646      14.65590308        4       0.00027915       0.00062106       0.00047729
Al       2.87703826      -0.00492026      14.65773476        4       0.00075682       0.00036628       0.00221262
Al       5.73651131      -0.01563465      14.66238318        4       0.00177632       0.00363234       0.01158546
Al       8.60729857      -0.01591475      14.66154628        4       0.00200527       0.00386156       0.01138035
Al       1.44509501       2.47050625      14.64889001        4       0.00056550       0.00065918      -0.00009272
Al       4.30269855       2.46648254      14.63474601        4       0.00234647       0.00056598       0.01420203
Al       7.17216403       2.45909902      14.62596861        4       0.00242842       0.00322049       0.01554188
Al      10.04586710       2.46826511      14.63846649        4      -0.00112183       0.00022847       0.00700541
Al       2.87107266       4.95880922      14.64997734        4       0.00148248      -0.00328913       0.00838761
Al       5.73682508       4.95919209      14.62302808        4       0.00137654      -0.00398271       0.01638189
Al       8.61088720       4.96041310      14.62648156        4       0.00147361      -0.00325395       0.01442106
Al      11.47701713       4.95890872      14.65366095        4      -0.00043350      -0.00237744       0.00836037
Al       4.29925909       7.44393599      14.66199107        4       0.00425582       0.00007427       0.00749116
Al       7.17450789       7.44141943      14.64961899        4       0.00165625       0.00120530       0.00977471
Al      10.04722671       7.44516173      14.66808860        4      -0.00215717      -0.00167227       0.00774240
Al      12.89946279       7.44159770      14.68857491        4       0.00123206      -0.00074120       0.00344577
Al       1.43417441       0.81240354      16.98176985        3       0.00200184       0.00014668      -0.00233550
Al       4.28430134       0.79971382      16.98158456        3       0.00159372       0.00114713      -0.00232579
Al       7.16302745       0.78529102      16.95930130        3       0.00106597       0.00465862      -0.00484860
Al      10.04572268       0.80323686      16.97547536        3      -0.00221038      -0.00138511      -0.00925926
Al       2.85339551       3.28081982      16.95781249        3       0.00608167       0.00133271      -0.01031668
Al       5.73046685       3.28863197      16.91641521        3      -0.00216104      -0.00356329      -0.01260774
Al       8.60904509       3.29137986      16.91764504        3      -0.00057534      -0.00245659      -0.01967488
Al      11.47380621       3.28411899      16.96040998        3       0.00055805       0.00032458      -0.01223626
Al       4.28740359       5.78708527      16.93808171        3       0.00065751       0.00141589      -0.00177747
Al       7.16393070       5.77833913      16.92180678        3       0.00437492       0.00982614      -0.01161283
Al      10.04547524       5.78686263      16.95018476        3      -0.00068385       0.00532906      -0.01225400
Al      12.89337758       5.77871448      16.99631035        3       0.00252236       0.00380242      -0.00985882
Al       5.73033895       8.27938831      16.96721813        3       0.00081029      -0.00039926      -0.00149828
Al       8.60395591       8.27913811      16.97627651        3       0.00008724       0.00026555      -0.00119418
Al      11.46016868       8.26642210      17.02993573        3      -0.00050785       0.00027990      -0.00923776
Al      14.31843203       8.25810853      17.02320834        3       0.00289993       0.00159234      -0.00874344
Al       0.02696564       1.63891398      19.28161926        2      -0.00194967      -0.00070181       0.00930081
Al       2.84331421       1.64370219      19.28934873        2       0.00282440      -0.00056632       0.00604938
Al       5.72552979       1.65560435      19.19174480        2       0.00282045      -0.00281814       0.01717618
Al       8.60365203       1.65570741      19.17188362        2      -0.00059565      -0.00260241       0.02619482
Al       1.44173197       4.12428100      19.25969161        2       0.00164812      -0.00420362      -0.00158440
Al       4.28247662       4.13580898      19.16531799        2       0.00791641      -0.00237002       0.02796050
Al       7.16930831       4.13411599      19.15252163        2       0.00367643      -0.00454895       0.01354982
Al      10.04567770       4.13666870      19.17067814        2      -0.00352725      -0.00423242       0.01114508
Al       2.87707070       6.62066512      19.30940821        2      -0.00193369       0.00257189       0.00555053
Al       5.73535541       6.63294646      19.18434842        2      -0.00181757      -0.00495816       0.02557540
Al       8.60416582       6.62530105      19.18882727        2      -0.00096625      -0.00478055       0.01510088
Al      11.46581981       6.62131666      19.29327033        2       0.00433412       0.00214792       0.00172884
Al       4.30300463       9.09667162      19.33478479        2       0.00313228      -0.00009022       0.01505033
Al       7.17218455       9.11044144      19.29350077        2      -0.00073886      -0.00385332       0.00138544
Al      10.02603450       9.09890691      19.39046056        2       0.00019900       0.00073278      -0.00067157
Al      12.88978729       9.09842099      19.35848874        2       0.00283256      -0.00294801       0.02058584
Al      -0.05860187      -0.08480639      21.83617009        1      -0.00233518      -0.00017075       0.00250956
Al       2.86494285      -0.05001601      21.85632890        1      -0.00424282       0.00346566       0.00236917
Al       5.69333856       0.06112055      21.75972708        1      -0.00242667      -0.00120541       0.00469997
Al       8.54629527       0.06031927      21.75827437        1      -0.00287534      -0.00031798       0.00512336
Al       1.44503843       2.56306220      21.85055417        1      -0.00088166       0.00218862       0.00969079
Al       4.31906288       2.51407025      21.49507143        1      -0.00360846      -0.00545464       0.01962353
Al       7.16343002       2.55029749      21.53604921        1       0.00015282      -0.00692967      -0.00438120
Al      10.01266912       2.49602574      21.51409862        1       0.00236991       0.00088743       0.00503927
Al       2.93000701       4.96926078      21.59428642        1      -0.00569940      -0.00822284      -0.01237649
Al       5.76236793       4.95181969      21.44136828        1      -0.01228433       0.00199976      -0.00137572
Al       8.57389669       4.94500819      21.50519176        1       0.00604310      -0.00859576      -0.00284236
Al      11.42693873       4.96202882      21.55366206        1       0.00314197      -0.00565845       0.01307582
Al       4.30320496       7.40124011      21.73596579        1      -0.00744304       0.00305201      -0.01966185
Al       7.12826809       7.37702307      21.56279743        1       0.00126761       0.00646669      -0.01287586
Al       9.92132799       7.34510336      21.73880519        1       0.00124391      -0.00116975      -0.00237118
Al      12.89588855       7.33812723      21.91461437        1      -0.00537974      -0.00233451       0.00608342
C        6.02635037       4.00930581      24.91771702        0       0.00155369      -0.01184233      -0.01624444
N        7.19474850       3.36504895      24.99708947        0      -0.00790084       0.03150515       0.00679611
C        8.10964351       4.38296298      25.08438907        0       0.03447477       0.02142669      -0.00333135
N        7.57752256       5.61224797      25.04417602        0       0.06254215       0.01161751      -0.00771936
N        6.24184006       5.35435365      24.97030344        0      -0.09956832       0.02374622      -0.02266224
H        5.04959382       3.55638612      24.77342760        0      -0.01966311       0.00340469      -0.02798584
H        9.19008972       4.24086903      25.12240807        0      -0.04340781      -0.04443846       0.00586055
H        5.59701419       6.06856903      24.63091432        0       0.05014971      -0.01522034       0.00115615
