104
Lattice="11.45512985522207 0.0 0.0 5.727564927611035 9.92043345827187 0.0 0.0 0.0 31.691342951089922" Properties=species:S:1:pos:R:3:tags:I:1:forces:R:3 energy=-420.077392578125 free_energy=-420.077392578125 stress="0.009343230165541172 -2.2212043404579163e-07 1.3224780559539795e-07 -2.2212043404579163e-07 0.009391115047037601 2.439599484205246e-06 1.3224780559539795e-07 2.439599484205246e-06 0.009649263694882393" pbc="T T F"
Al       1.51564920       0.85365770       9.86278773        6       0.00078436       0.00021293       0.00218837
Al       4.38019694       0.85526314       9.88441825        6       0.00085989       0.00007598       0.00212016
Al       7.24045736       0.85505379       9.90129047        6       0.00083105       0.00008172       0.00201930
Al      10.10360760       0.85304880       9.87495780        6       0.00077150       0.00028262       0.00209490
Al       2.94614492       3.33900821       9.87152366        6       0.00074012       0.00003604       0.00203898
Al       5.80582953       3.34084664       9.88330078        6       0.00094493      -0.00006879       0.00204667
Al       8.66824912       3.34111167       9.86971233        6       0.00089962      -0.00012812       0.00209978
Al      11.53402677       3.34003891       9.86105005        6       0.00085065      -0.00003883       0.00208858
Al       4.37187799       5.81518306       9.90922211        6       0.00094277       0.00038663       0.00198947
Al       7.23531269       5.81547652       9.89570560        6       0.00092257       0.00038640       0.00205349
Al      10.09917010       5.81695728       9.89578818        6       0.00093107       0.00017731       0.00206354
Al      12.96494359       5.81574045       9.90040944        6       0.00087364       0.00029887       0.00207010
Al       5.80531282       8.29203041       9.90006507        6       0.00093200       0.00031929       0.00204185
Al       8.67196894       8.29088646       9.89738632        6       0.00086418       0.00040876       0.00206022
Al      11.53379241       8.28858603       9.92301232        6       0.00099848       0.00053815       0.00197041
Al      14.39910433       8.29017361       9.92863537        6       0.00068817       0.00043958       0.00197842
Al       0.13465825       1.67685605      12.30034203        5       0.00043239      -0.00239454       0.00167335
Al       2.99995222       1.67891033      12.30983311        5      -0.00032078      -0.00287236       0.00093044
Al       5.86281187       1.67801873      12.33075994        5      -0.00131881      -0.00374343      -0.00536303
Al       8.72393056       1.67633302      12.31553425        5      -0.00022870      -0.00344863      -0.00050589
Al       1.56781805       4.15299668      12.31184320        5       0.00037090       0.00056811      -0.00324946
Al       4.43223565       4.15533433      12.31944867        5      -0.00102203      -0.00045814      -0.00053584
Al       7.29839205       4.15533662      12.31635493        5      -0.00137620      -0.00044659      -0.00126651
Al      10.15824878       4.15120569      12.31012620        5       0.00094612       0.00123232      -0.00220915
Al       2.99573751       6.63939983      12.35505303        5      -0.00038364       0.00003238      -0.00169888
Al       5.86203937       6.64029514      12.34012412        5      -0.00018782       0.00039691      -0.00405733
Al       8.72945219       6.63811582      12.33945503        5       0.00045765       0.00137009      -0.00201994
Al      11.59228650       6.64125750      12.35464943        5       0.00017891      -0.00016605      -0.00426447
Al       4.42587403       9.12220160      12.33792776        5       0.00028821      -0.00141600       0.00186169
Al       7.29401900       9.12116102      12.32355445        5       0.00037522      -0.00070945       0.00255935
Al      10.16119573       9.12098433      12.34339285        5      -0.00127488      -0.00123157      -0.00095848
Al      13.01730601       9.11937563      12.36733142        5       0.00092399      -0.00145803      -0.00460239
Al       0.13249640      -0.00849514      14.64521903        4       0.00154851       0.00231983       0.00151492
Al       3.00444657      -0.00253131      14.64554455        4      -0.00070245       0.00160933       0.00268421
Al       5.86100639       0.00058874      14.68575861        4       0.00091613      -0.00003059       0.00064729
Al       8.72517006      -0.00525916      14.67958629        4       0.00083820       0.00058946       0.00187719
Al       1.57088458       2.47495059      14.62170370        4      -0.00079796      -0.00167015       0.00108196
Al       4.43225992       2.47885873      14.64082803        4      -0.00252281      -0.00419467      -0.00342410
Al       7.30202481       2.47394988      14.63649534        4      -0.00046786      -0.00210019      -0.00098566
Al      10.16171819       2.46112153      14.61921472        4       0.00105859       0.00065732       0.00207712
Al       3.00267195       4.95989812      14.64049809        4      -0.00529642      -0.00355599      -0.00105524
Al       5.87004654       4.96189020      14.63159538        4      -0.00040284      -0.00070841       0.00027802
Al       8.74167438       4.95942568      14.63383354        4       0.00048728       0.00015227       0.00140624
Al      11.60021224       4.95356003      14.61693028        4      -0.00245439       0.00049570       0.01100649
Al       4.43024703       7.45370077      14.67101631        4      -0.00192433      -0.00292058      -0.00180244
Al       7.30290745       7.44871385      14.65810032        4      -0.00053841      -0.00073491      -0.00118663
Al      10.16922193       7.45456161      14.67892463        4       0.00165107      -0.00260573      -0.00090006
Al      13.02968314       7.44770075      14.70995766        4      -0.00368958      -0.00140389      -0.01105393
Al       1.52496884       0.75068673      16.99152101        3       0.01031450       0.00436632      -0.00077504
Al       4.39657622       0.75552864      17.00738719        3      -0.00592396      -0.00554415       0.00051882
Al       7.26373006       0.74280819      17.02602742        3       0.00064826       0.00034083       0.00125036
Al      10.14411040       0.75331303      17.02639015        3      -0.00830554      -0.00135090      -0.00389480
Al       2.95155225       3.21136044      16.96028242        3       0.00204041       0.00211632      -0.00026358
Al       5.84286095       3.22153730      16.94276637        3      -0.00927633       0.00123929       0.00028526
Al       8.71712045       3.21780432      16.94209841        3      -0.00058439       0.00139070       0.00296658
Al      11.56323427       3.22445453      16.95386322        3       0.00019516       0.00065050       0.00045782
Al       4.38914487       5.72028427      16.94407530        3      -0.00029220       0.00179368       0.00182279
Al       7.27070617       5.72609535      16.94579913        3       0.00067103       0.00024479      -0.00019098
Al      10.14012625       5.73276890      16.96886714        3       0.00135339       0.00026052       0.00095369
Al      12.97491063       5.72951717      16.98210862        3       0.00937627      -0.00246397       0.00161559
Al       5.82720001       8.23130877      16.98905727        3       0.00119733      -0.01829061       0.01483986
Al       8.70534092       8.21770567      16.99228189        3       0.00098138       0.00115559       0.00227572
Al      11.58108042       8.21180200      17.06763952        3      -0.00308928       0.00148360       0.00301266
Al      14.42910165       8.23394956      17.07613167        3       0.00072216      -0.00487927      -0.00815122
Al       0.07575979       1.54572263      19.35792860        2       0.00283163      -0.00033158       0.00206061
Al       2.88413671       1.51656912      19.35762069        2       0.00350091       0.00646334       0.00418672
Al       5.75716265       1.53380875      19.30423341        2      -0.00166769      -0.00097523      -0.00193605
Al       8.64592035       1.52708850      19.31438625        2       0.00088382       0.00220580       0.00166704
Al       1.48451120       4.01068950      19.25282751        2      -0.00028996      -0.00044770       0.00981951
Al       4.33168918       4.02192620      19.22020409        2       0.00056971      -0.00377838       0.00777820
Al       7.22072222       4.00784008      19.21356798        2       0.00506996       0.00502639      -0.00516562
Al      10.11717003       4.02489273      19.24083450        2      -0.00176946       0.00177684      -0.00452915
Al       2.92253298       6.51490440      19.29294153        2      -0.00541857       0.00039900       0.00488143
Al       5.78072264       6.49733109      19.22427312        2      -0.00273116       0.00284441      -0.00586454
Al       8.67022594       6.52250655      19.24176906        2      -0.00073707      -0.00372688       0.00161045
Al      11.52765049       6.49285122      19.36479685        2      -0.00018178      -0.00107801       0.00802329
Al       4.37396693       9.00688677      19.47000595        2      -0.00466842      -0.00587291      -0.03339638
Al       7.22406924       9.01204086      19.33089990        2       0.00032007      -0.00025363       0.00848542
Al      10.06464146       8.97277793      19.41693646        2       0.00225100       0.00341136       0.00114203
Al      12.93288927       8.98623059      19.52150541        2       0.00617192       0.00291931      -0.00865976
Al      -0.13126088      -0.28160935      21.94845534        1       0.00529876       0.00618392      -0.00418510
Al       2.71478661      -0.21896928      22.12120006        1      -0.00517411       0.00567402       0.00023402
Al       5.55179130      -0.08273632      21.85323493        1       0.00662313      -0.00207678       0.00919634
Al       8.52953351      -0.07391355      22.02917471        1      -0.00045851      -0.00324698       0.00084405
Al       1.40416720       2.43044535      21.96706460        1      -0.00161552      -0.00064130       0.00717320
Al       4.26853837       2.42669556      21.63163996        1      -0.00448228      -0.00331108      -0.00492848
Al       7.11060151       2.37419489      21.62230180        1       0.00370139       0.00129906      -0.00907478
Al      10.03749373       2.33657410      21.62313853        1      -0.00910942       0.00417802       0.00244772
Al       2.75213219       4.85048511      21.55930886        1       0.00805944      -0.00137262       0.00423812
Al       5.68960849       4.80860491      21.52811934        1      -0.00218877       0.00508747      -0.00661139
Al       8.44638012       4.79131518      21.58245474        1       0.00200304       0.00101070      -0.00280467
Al      11.20057432       4.92004375      21.85596969        1       0.01183655      -0.01336759       0.00177121
Al       4.22112308       7.24202879      21.70959988        1      -0.00147007       0.00219473      -0.00742614
Al       7.02430745       7.26936943      21.54299783        1      -0.00405005       0.00295818       0.00305479
Al       9.69966034       7.24035941      21.86433507        1       0.00480526       0.00334689       0.00034021
Al      12.79540458       7.29141294      21.90478759        1       0.00075294      -0.00157374       0.00088950
C        5.08734761       5.06530384      24.90408024        0       0.02829890      -0.00987231      -0.00174589
N        5.71133888       3.89672580      25.08337581        0      -0.00819124       0.04445999      -0.00382584
C        7.03178010       4.25108037      25.15830841        0      -0.04110540       0.02068955      -0.01785168
N        7.26852018       5.56327310      25.01162160        0      -0.00621627      -0.01125384       0.00992949
N        6.00501249       6.07517217      24.89883523        0       0.00487748      -0.00979823      -0.00551207
H        4.02880268       5.22303784      24.71499469        0      -0.00055350      -0.00583415      -0.00602521
H        7.84204301       3.52857931      25.24594975        0       0.02078417       0.00389242       0.00463434
H        5.87052178       6.98794220      24.46301263        0      -0.01598784      -0.00428541       0.00703107
