104
Lattice="11.45512985522207 0.0 0.0 5.727564927611035 9.92043345827187 0.0 0.0 0.0 31.691342951089922" Properties=species:S:1:pos:R:3:tags:I:1:forces:R:3 energy=-420.0182189941406 free_energy=-420.0182189941406 stress="0.004283582791686058 1.4621764421463013e-07 -3.7159770727157593e-07 1.4621764421463013e-07 0.004358937963843346 2.5476329028606415e-06 -3.7159770727157593e-07 2.5476329028606415e-06 0.004649701528251171" pbc="T T F"
Al       1.42366472       0.83818839      10.00870228        6       0.00031405       0.00046473      -0.00683805
Al       4.28788650       0.83615701      10.01257985        6       0.00041027       0.00047394      -0.00543970
Al       7.15156026       0.83655342      10.01783960        6       0.00034420       0.00047114      -0.00488752
Al      10.01440131       0.83877352      10.01283377        6       0.00026792       0.00050867      -0.00660671
Al       2.85419328       3.31913770      10.01529274        6       0.00042596       0.00031396      -0.00674916
Al       5.71883380       3.31673497      10.01355451        6       0.00045771       0.00049525      -0.00541140
Al       8.58345872       3.31711119      10.01377949        6       0.00020915       0.00047625      -0.00609463
Al      11.44675999       3.31911435      10.01439219        6       0.00025096       0.00021964      -0.00731194
Al       4.28539326       5.80134759      10.02601367        6       0.00038396       0.00003104      -0.00579769
Al       7.15023372       5.80054630      10.02088198        6       0.00030570      -0.00003179      -0.00611295
Al      10.01532974       5.80040306      10.02474179        6       0.00018426      -0.00006015      -0.00630481
Al      12.87796932       5.80146712      10.03076064        6       0.00016626       0.00009070      -0.00681115
Al       5.71816048       8.28129520      10.02064945        6       0.00035583      -0.00016322      -0.00716003
Al       8.58390633       8.28016834      10.01800687        6       0.00027571      -0.00021949      -0.00661191
Al      11.44780010       8.28043163      10.03016485        6       0.00043964       0.00007405      -0.00567354
Al      14.30937432       8.28142368      10.03040595        6       0.00021068       0.00002843      -0.00611994
Al       0.02098546       1.65189548      12.36178064        5       0.00005916       0.00109254      -0.00440103
Al       2.87918727       1.65025194      12.36343630        5       0.00295328       0.00148263      -0.00241318
Al       5.74241735       1.64479763      12.36166557        5       0.00127244       0.00203113       0.00350851
Al       8.61496881       1.64591523      12.36286101        5      -0.00149755       0.00222271       0.00127288
Al       1.45009150       4.13400294      12.36723916        5       0.00126964       0.00050804       0.00110871
Al       4.30895199       4.13356506      12.36024437        5       0.00238823      -0.00017026       0.00465147
Al       7.18082079       4.13209686      12.35343984        5      -0.00006546       0.00038670       0.00476453
Al      10.04894569       4.13453994      12.36061781        5      -0.00094730       0.00014418       0.00206546
Al       2.87944410       6.61628162      12.38288150        5       0.00201390       0.00041767       0.00549960
Al       5.74614117       6.62187783      12.36766876        5       0.00095468      -0.00220576       0.00643535
Al       8.61340574       6.62007544      12.36807644        5       0.00010820      -0.00114665       0.00487599
Al      11.47736187       6.61522881      12.38021237        5      -0.00050138       0.00107663       0.00578964
Al       4.31654222       9.09548096      12.37243891        5      -0.00114853       0.00006175       0.00356784
Al       7.17854545       9.09445566      12.36802414        5       0.00116914       0.00087975      -0.00043608
Al      10.03847521       9.09215309      12.36994713        5       0.00277191       0.00118809       0.00591239
Al      12.90648858       9.08971112      12.38211362        5      -0.00024720       0.00241575       0.00620280
Al       0.02640293      -0.00748737      14.63918260        4       0.00116977       0.00031042       0.00760691
Al       2.88563843      -0.00795393      14.64366803        4       0.00100998       0.00029056       0.00539021
Al       5.74403226      -0.01648380      14.66436988        4       0.00051521       0.00064048      -0.00114903
Al       8.62152097      -0.01571879      14.66428078        4      -0.00012303       0.00045978      -0.00124257
Al       1.45333946       2.46742196      14.63084813        4       0.00169826      -0.00064402       0.00453019
Al       4.31119998       2.46058831      14.64184085        4       0.00045700       0.00033803      -0.00211679
Al       7.18321589       2.45702077      14.62670999        4      -0.00014494       0.00080247      -0.00160046
Al      10.05324143       2.46331820      14.63509850        4       0.00049572       0.00023019      -0.00140011
Al       2.87922370       4.94834864      14.65179730        4       0.00089129       0.00114147      -0.00147186
Al       5.74471760       4.94956606      14.62847495        4       0.00068950       0.00146560      -0.00138293
Al       8.62289102       4.95372452      14.62879349        4      -0.00017852       0.00117191      -0.00190451
Al      11.48569716       4.95141118      14.65475936        4       0.00032818       0.00087167      -0.00177281
Al       4.31418405       7.44375916      14.65937373        4       0.00106569       0.00001956      -0.00034718
Al       7.18545278       7.44448228      14.65197230        4       0.00033719       0.00086105      -0.00160903
Al      10.05292542       7.44240528      14.66545556        4       0.00016063       0.00087092      -0.00169027
Al      12.90930337       7.43748694      14.67993776        4       0.00061702       0.00081577      -0.00036477
Al       1.44374442       0.80979358      16.97647510        3       0.00259412      -0.00015182      -0.00406954
Al       4.28759984       0.79281221      16.98379488        3       0.00774054       0.00455924       0.00109535
Al       7.17016743       0.79012619      16.94848302        3       0.00278655      -0.00222428       0.01793594
Al      10.05495357       0.79400236      16.96685414        3      -0.00105335       0.00104149       0.00030848
Al       2.86753112       3.27518006      16.94272844        3       0.00403553       0.00165207       0.00114989
Al       5.73520886       3.27634137      16.89924718        3       0.00240597       0.00546374       0.01918793
Al       8.61586285       3.28163110      16.88943945        3      -0.00187721      -0.00043790       0.01780102
Al      11.48732394       3.27689274      16.93790812        3      -0.00056891       0.00040507      -0.00130808
Al       4.29370249       5.79082849      16.93218196        3       0.00952662      -0.00452689       0.01399409
Al       7.17828809       5.79619792      16.89677356        3      -0.00270055      -0.00700420       0.02462523
Al      10.05684492       5.80037295      16.92834568        3      -0.00382513      -0.00404259       0.00846365
Al      12.90376116       5.78498425      16.98564205        3       0.00204092       0.00208644      -0.00372178
Al       5.73898518       8.28650880      16.96970324        3       0.00074048      -0.01051629       0.00321222
Al       8.61238545       8.28947355      16.98129870        3      -0.00054401      -0.00808653       0.00058616
Al      11.46164335       8.26683018      17.01950497        3       0.01010378       0.00886783       0.00065208
Al      14.33472550       8.25713840      17.01241252        3      -0.00122023       0.00429991       0.00152686
Al       0.04108293       1.62303418      19.28213167        2      -0.00462294       0.00389815       0.00546036
Al       2.84374042       1.63130067      19.29609167        2       0.00140853       0.00148867      -0.00011284
Al       5.73256939       1.63191587      19.21586527        2      -0.00135796       0.00152366      -0.00720217
Al       8.61153662       1.63019194      19.19341593        2       0.00163775       0.00039501      -0.00105654
Al       1.45047294       4.11200413      19.22219676        2      -0.00142369      -0.00135093      -0.00336027
Al       4.30436274       4.12294301      19.19723616        2      -0.00319520      -0.00602625      -0.01554920
Al       7.17808020       4.13441770      19.14054617        2       0.00389102      -0.00856848       0.00118680
Al      10.04749313       4.12637561      19.14051792        2       0.00284704      -0.00430654       0.00657500
Al       2.87338676       6.63560148      19.31588603        2      -0.00102436      -0.00222819      -0.01003432
Al       5.73161295       6.62016407      19.21658967        2      -0.00075456       0.00521596      -0.02292076
Al       8.61183116       6.60952164      19.20237483        2       0.00125828       0.00200225      -0.00804893
Al      11.48474883       6.63237966      19.28490826        2      -0.00029847      -0.00724538       0.00097836
Al       4.30577700       9.08964226      19.38706579        2       0.00328989       0.00358010      -0.00866587
Al       7.17553171       9.10803813      19.29113518        2       0.00096492       0.00237491      -0.00497487
Al      10.03602712       9.09970682      19.42733814        2       0.00026292      -0.00036322      -0.00408996
Al      12.90154996       9.08990722      19.41258918        2       0.00002596       0.00033744      -0.00145190
Al      -0.08450637      -0.10879771      21.90301267        1      -0.00236728      -0.00085624       0.00137514
Al       2.84475823      -0.04772668      21.92347175        1      -0.00291270       0.00146038       0.00301342
Al       5.67573993       0.06136141      21.81321286        1      -0.00212223      -0.00349219       0.00258592
Al       8.52383542       0.06703998      21.81436187        1      -0.00362114      -0.00254066       0.00369713
Al       1.44285466       2.58832672      21.95341307        1      -0.00313819       0.00268980       0.00435158
Al       4.30556743       2.49753201      21.53583397        1      -0.00362897      -0.00459829       0.00249891
Al       7.15700311       2.54017774      21.49396786        1      -0.00157592      -0.00405981       0.00597721
Al      10.02350040       2.48537066      21.52219624        1       0.00707484      -0.00394049      -0.00228927
Al       2.92853377       4.94695531      21.52899870        1      -0.01187607       0.00102173       0.00971636
Al       5.74070743       4.95962748      21.42083101        1       0.00800654      -0.00720491       0.02347106
Al       8.58171340       4.91113023      21.48434321        1      -0.00303481      -0.00186225       0.00651267
Al      11.42378271       4.95141999      21.54887455        1       0.00093821       0.00198686      -0.00327490
Al       4.26996862       7.40236106      21.70508315        1      -0.00086781       0.00069745      -0.00279114
Al       7.12416649       7.38909849      21.49115764        1       0.00503808       0.00131292       0.02707221
Al       9.90431634       7.31974136      21.74604909        1       0.00095646       0.00063921      -0.00145951
Al      12.87785670       7.30567318      22.01384500        1      -0.00655920      -0.00098123       0.00166167
C        5.96338728       4.09561719      24.89077393        0      -0.03433770       0.01120405      -0.02196057
N        7.07934994       3.38402481      25.05621696        0       0.04698864       0.01537540       0.00320795
C        8.05044449       4.34564879      25.18321089        0      -0.00901281      -0.08233223      -0.00683804
N        7.60814075       5.60444998      25.08952152        0      -0.04746668       0.00477631      -0.00405232
N        6.25977297       5.42268247      24.93712521        0      -0.00144549       0.04052819       0.00120834
H        4.98152628       3.69273447      24.66216774        0      -0.04854277       0.02219551      -0.00492166
H        9.10560176       4.10751589      25.28912070        0       0.04227129       0.01343169       0.01073272
H        5.65874055       6.19272367      24.65192849        0       0.01359918      -0.01077584      -0.03561674
