104
Lattice="11.45512985522207 0.0 0.0 5.727564927611035 9.92043345827187 0.0 0.0 0.0 31.691342951089922" Properties=species:S:1:pos:R:3:tags:I:1:forces:R:3 energy=-420.11614990234375 free_energy=-420.11614990234375 stress="0.009342660196125507 -5.960464477539063e-08 8.009374141693115e-08 -5.960464477539063e-08 0.00938536785542965 2.355314791202545e-06 8.009374141693115e-08 2.355314791202545e-06 0.009624330326914787" pbc="T T F"
Al       1.48508730       0.85009431       9.85780917        6       0.00102427       0.00000429       0.00271133
Al       4.34958297       0.85057462       9.87846653        6       0.00103616      -0.00013848       0.00267679
Al       7.21042773       0.85095269       9.89611769        6       0.00103616      -0.00011157       0.00260673
Al      10.07345781       0.84999606       9.87051685        6       0.00098786       0.00010121       0.00261528
Al       2.91555125       3.33497201       9.87142817        6       0.00097415      -0.00014295       0.00246060
Al       5.77599468       3.33538549       9.88135194        6       0.00114859      -0.00019467       0.00244349
Al       8.63827790       3.33652193       9.86960433        6       0.00118261      -0.00028288       0.00250092
Al      11.50439616       3.33568458       9.86176924        6       0.00103086      -0.00013315       0.00255009
Al       4.34204073       5.81172411       9.90944681        6       0.00107078       0.00012953       0.00235137
Al       7.20499533       5.81117985       9.89463910        6       0.00112567       0.00016680       0.00239523
Al      10.06945119       5.81253629       9.89607818        6       0.00112172       0.00001245       0.00246520
Al      12.93479299       5.81245941       9.90239110        6       0.00101998       0.00013102       0.00249147
Al       5.77524706       8.28952047       9.89502281        6       0.00112108       0.00008515       0.00244403
Al       8.64203575       8.28719201       9.89061907        6       0.00104454       0.00019225       0.00259497
Al      11.50437764       8.28592970       9.91890862        6       0.00114631       0.00027330       0.00257658
Al      14.36892557       8.28792775       9.92410286        6       0.00088624       0.00023078       0.00242715
Al       0.10660312       1.67034619      12.30512219        5      -0.00032495      -0.00105602       0.00025268
Al       2.96820235       1.66895948      12.31624432        5       0.00044383      -0.00007248      -0.00477813
Al       5.83094364       1.66866075      12.33083084        5       0.00078335      -0.00046134      -0.00116493
Al       8.70088175       1.66879250      12.32214545        5      -0.00145833      -0.00013866      -0.00045678
Al       1.53571050       4.15170002      12.31553730        5       0.00114490      -0.00154509       0.00205230
Al       4.39670273       4.15052604      12.32516228        5       0.00104435      -0.00151721      -0.00437727
Al       7.27048202       4.15039738      12.31658150        5      -0.00062646      -0.00148874      -0.00084486
Al      10.13821745       4.14912183      12.31590658        5      -0.00298333      -0.00078134       0.00019026
Al       2.96454120       6.63563390      12.35716557        5       0.00027043       0.00076479      -0.00319750
Al       5.83175433       6.63758754      12.33614951        5       0.00026324      -0.00023149      -0.00149474
Al       8.70202033       6.63879999      12.33307636        5      -0.00004069      -0.00135727       0.00041232
Al      11.56300921       6.63283330      12.35773271        5       0.00021144       0.00279522      -0.00205661
Al       4.39914970       9.11708135      12.33822856        5      -0.00011139      -0.00109135       0.00235942
Al       7.26581070       9.11762631      12.32923745        5      -0.00024960      -0.00122509      -0.00154594
Al      10.12773212       9.11801638      12.35451610        5       0.00201142      -0.00181265      -0.00582925
Al      12.99047771       9.11667386      12.37185268        5      -0.00124026      -0.00202756      -0.00501007
Al       0.10120452      -0.00546400      14.64816245        4       0.00252452       0.00045285       0.00272101
Al       2.97498421      -0.00034034      14.66438704        4      -0.00075112       0.00063373      -0.00113249
Al       5.83545254       0.00010569      14.70064575        4      -0.00196406      -0.00177151      -0.00874178
Al       8.69828442      -0.00192175      14.68998204        4      -0.00004982      -0.00388571      -0.01127489
Al       1.53948240       2.47424876      14.62543039        4       0.00067431      -0.00007755       0.00191992
Al       4.39920734       2.47799744      14.64116772        4       0.00110696      -0.00125337       0.00036578
Al       7.27333225       2.46837867      14.63933462        4       0.00037042       0.00045318       0.00144184
Al      10.13610942       2.47006869      14.64345023        4       0.00134948      -0.00126351      -0.00715373
Al       2.96833128       4.96567519      14.64837450        4      -0.00110726      -0.00366312      -0.00249740
Al       5.83848229       4.95988770      14.62314292        4       0.00009670      -0.00029995       0.00191802
Al       8.71482205       4.96334646      14.63299034        4      -0.00148095      -0.00470491      -0.00447094
Al      11.57285057       4.96036737      14.65424282        4       0.00045363      -0.00030077       0.00039426
Al       4.39739282       7.45199274      14.67214708        4       0.00110115      -0.00011902       0.00137318
Al       7.27399391       7.44378844      14.65478447        4      -0.00106146       0.00254800      -0.00034975
Al      10.13874352       7.45172890      14.67746026        4       0.00131959       0.00031467       0.00202398
Al      12.99916433       7.44840719      14.70759100        4       0.00049369       0.00021040       0.00170896
Al       1.52565146       0.76780176      16.98184392        3      -0.01580409       0.00293940       0.00861854
Al       4.36829590       0.77090147      17.02106836        3       0.00521328       0.00019590      -0.00236822
Al       7.24912756       0.76079657      17.02481767        3      -0.00483109       0.00010855       0.00186590
Al      10.11015703       0.76407338      17.00472185        3       0.00944059      -0.00161060       0.01095084
Al       2.94174681       3.24141041      16.95680272        3       0.00038767      -0.00026104       0.00202717
Al       5.81445760       3.24639590      16.94648158        3       0.00071396      -0.00070606       0.00141343
Al       8.69139463       3.24232370      16.95151945        3       0.00003242      -0.00006130      -0.00020213
Al      11.55754561       3.23587470      16.95877135        3       0.00035074       0.00041808       0.00263367
Al       4.36261507       5.74574182      16.95533367        3       0.00447416      -0.00145360      -0.00204809
Al       7.25309184       5.74528308      16.91801689        3      -0.00311205      -0.00301967       0.01137542
Al      10.12491561       5.75659215      16.96343608        3       0.00407583      -0.00147316       0.00274767
Al      12.97515530       5.73273823      17.01008980        3      -0.00223512       0.00385824      -0.00124136
Al       5.80296671       8.22386396      17.01086543        3       0.00780890       0.02307985      -0.02411418
Al       8.68545222       8.24131319      17.00531490        3       0.00009704      -0.00401256      -0.00678421
Al      11.56914786       8.23430332      17.07786345        3      -0.00750393      -0.00455659      -0.00700098
Al      14.40871846       8.23612095      17.08000767        3      -0.00187637       0.00014097      -0.00516183
Al       0.05297280       1.55658945      19.33798136        2       0.00835212      -0.00115000      -0.00714683
Al       2.87400522       1.54192852      19.36038491        2      -0.00280666       0.00055126      -0.00544208
Al       5.74587703       1.55721204      19.31543548        2       0.00410266       0.00117273      -0.00731691
Al       8.62701754       1.55385502      19.30097009        2       0.00092272      -0.00164272       0.00168811
Al       1.48274046       4.03252234      19.28721717        2      -0.00136036       0.00024383      -0.00778627
Al       4.32317977       4.03540811      19.21360831        2       0.00256526       0.00266867       0.00691741
Al       7.22202798       4.05111028      19.20859223        2      -0.00296597      -0.00344292       0.00095697
Al      10.10373875       4.04970377      19.22431945        2       0.00112008       0.00088024      -0.00766545
Al       2.92130937       6.53111700      19.31804807        2      -0.00431377       0.00265208      -0.00477841
Al       5.76792616       6.53899308      19.21991214        2       0.00250474      -0.00453725       0.00499742
Al       8.65262819       6.53840264      19.21988768        2       0.00030252       0.00079002       0.00703099
Al      11.52619021       6.52780863      19.36415558        2      -0.00118537      -0.00076688       0.00032119
Al       4.35812843       9.02509015      19.45985146        2       0.00042445      -0.00022065      -0.00441377
Al       7.21433021       9.03673559      19.33253363        2       0.00078797       0.00106843      -0.00097903
Al      10.06510651       9.00779395      19.37726143        2       0.00184626      -0.00258843       0.01207203
Al      12.93067590       9.00671052      19.52757373        2       0.00109176       0.00036773       0.00206786
Al      -0.15168316      -0.26851529      22.00103468        1       0.00344352      -0.00109056      -0.00197425
Al       2.74465492      -0.17111511      22.09752466        1      -0.00478055       0.00245018       0.00054687
Al       5.52263721      -0.06240465      21.87135013        1       0.00783421       0.00114598       0.00239771
Al       8.49528913      -0.05490586      22.01054457        1       0.00065810       0.00248577       0.00074622
Al       1.42530030       2.46595012      21.99223622        1      -0.00291819       0.00112716       0.00775990
Al       4.26013257       2.43951017      21.59313496        1       0.00319135       0.00261650       0.00697506
Al       7.10753692       2.42344610      21.65085700        1       0.00300763      -0.00302891      -0.00864152
Al      10.04155283       2.39200676      21.57277706        1      -0.00978582      -0.00966635       0.01327931
Al       2.79072752       4.86582402      21.59040527        1       0.00548729       0.00328339       0.00432203
Al       5.69935333       4.85020811      21.47898602        1       0.00229139      -0.00059986      -0.00667072
Al       8.48444334       4.82926153      21.58345248        1      -0.00435443      -0.00502378      -0.00130924
Al      11.25498779       4.92007387      21.75839683        1       0.00490032      -0.00366644       0.00530296
Al       4.22388529       7.26736902      21.72318651        1      -0.00070159       0.00248957      -0.00164760
Al       7.04681485       7.31806866      21.55103327        1      -0.00324236      -0.00013330       0.00025309
Al       9.73758778       7.24365096      21.81148414        1       0.00141384       0.00270534       0.00425720
Al      12.80932218       7.31321351      21.96867313        1       0.00014921      -0.00220550       0.00272156
C        5.30283562       4.83818790      24.87806369        0       0.02095272      -0.03847511      -0.01027703
N        6.03601819       3.74612804      25.12162193        0      -0.02174478       0.02634669      -0.00088808
C        7.31126859       4.23474971      25.21525382        0      -0.01182139      -0.02587477      -0.00794606
N        7.42072729       5.55440182      25.00384024        0      -0.00533271       0.01143689       0.01329707
N        6.11641070       5.93115338      24.84385121        0       0.01305114       0.00578448       0.01171250
H        4.24365175       4.87788908      24.63821342        0      -0.00884540      -0.00508583       0.00606503
H        8.18747599       3.60703116      25.37449448        0      -0.00379590       0.01025171      -0.00370037
H        5.89606421       6.81257364      24.38302608        0      -0.01684788       0.03674809      -0.01288730
