104
Lattice="11.45512985522207 0.0 0.0 5.727564927611035 9.92043345827187 0.0 0.0 0.0 31.691342951089922" Properties=species:S:1:pos:R:3:tags:I:1:forces:R:3 energy=-420.0975341796875 free_energy=-420.0975341796875 stress="0.005493765231221914 1.0300427675247192e-06 -2.966262400150299e-07 1.0300427675247192e-06 0.005552532617002726 2.1173618733882904e-06 -2.966262400150299e-07 2.1173618733882904e-06 0.005749681033194065" pbc="T T F"
Al       1.42920189       0.82831422       9.99736724        6      -0.00019808       0.00030289       0.00471575
Al       4.29297928       0.82832036       9.99735714        6      -0.00018873       0.00027595       0.00474685
Al       7.15675550       0.82832245       9.99735780        6      -0.00018910       0.00027684       0.00478098
Al      10.02054096       0.82832641       9.99741137        6      -0.00019503       0.00029909       0.00475959
Al       2.86106874       3.30842764       9.99733358        6      -0.00021679       0.00030796       0.00473187
Al       5.72486942       3.30841337       9.99730883        6      -0.00020855       0.00026984       0.00474830
Al       8.58863958       3.30841476       9.99729144        6      -0.00019827       0.00027531       0.00475374
Al      11.45240650       3.30841994       9.99734757        6      -0.00019831       0.00030870       0.00473941
Al       4.29295248       5.78854961       9.99734545        6      -0.00022439       0.00031325       0.00470932
Al       7.15673917       5.78854829       9.99733384        6      -0.00020870       0.00029041       0.00472905
Al      10.02053814       5.78853442       9.99731803        6      -0.00018515       0.00030248       0.00473453
Al      12.88426845       5.78854945       9.99737336        6      -0.00020684       0.00032883       0.00473455
Al       5.72484045       8.26867094       9.99735748        6      -0.00021239       0.00031183       0.00471281
Al       8.58864137       8.26866190       9.99733903        6      -0.00018061       0.00029227       0.00470915
Al      11.45243151       8.26865166       9.99734166        6      -0.00017535       0.00029991       0.00475738
Al      14.31617333       8.26867307       9.99741256        6      -0.00020524       0.00032067       0.00474349
Al       0.00537038       1.65530817      12.39823876        5       0.00096235      -0.00073714      -0.00977885
Al       2.86922953       1.65543109      12.39924920        5       0.00084214      -0.00090018      -0.01042067
Al       5.73286309       1.65531546      12.40066747        5       0.00100498      -0.00092101      -0.01240736
Al       8.59685883       1.65527369      12.39943320        5       0.00083927      -0.00094206      -0.01121438
Al       1.43721239       4.13571011      12.39921379        5       0.00096194      -0.00074314      -0.01128874
Al       4.30122718       4.13558477      12.40109846        5       0.00066632      -0.00080958      -0.01436384
Al       7.16487184       4.13580142      12.40175423        5       0.00096478      -0.00098603      -0.01627375
Al      10.02851853       4.13547476      12.40038561        5       0.00116344      -0.00060284      -0.01399842
Al       2.86925477       6.61574840      12.39863541        5       0.00069240      -0.00060455      -0.00868963
Al       5.73292272       6.61587811      12.40043044        5       0.00082969      -0.00069578      -0.01348084
Al       8.59694055       6.61587762      12.40074382        5       0.00109118      -0.00080783      -0.01497865
Al      11.46052652       6.61573408      12.39958215        5       0.00127598      -0.00063820      -0.01108846
Al       4.30103325       9.09553683      12.39797228        5       0.00079872      -0.00066064      -0.00808200
Al       7.16490426       9.09572838      12.39820346        5       0.00113526      -0.00060138      -0.00948449
Al      10.02895872       9.09560652      12.39948243        5       0.00092840      -0.00050174      -0.01001155
Al      12.89250456       9.09593944      12.39860878        5       0.00082723      -0.00092354      -0.00788105
Al       0.00019731       0.00167650      14.69031556        4       0.00044224       0.00036315       0.00693874
Al       2.86398083       0.00157537      14.68999161        4       0.00051700       0.00036691       0.00701573
Al       5.72779008       0.00156704      14.69045094        4       0.00059771       0.00030539       0.00724721
Al       8.59148185       0.00145886      14.69093744        4       0.00040259       0.00033960       0.00701078
Al       1.43189903       2.48185224      14.68963581        4       0.00056049       0.00032685       0.00711831
Al       4.29551853       2.48179623      14.68849907        4       0.00065111       0.00015458       0.00774552
Al       7.15948486       2.48170731      14.68788916        4       0.00083636       0.00009465       0.00754665
Al      10.02354800       2.48170636      14.68878090        4       0.00078654       0.00024889       0.00746633
Al       2.86369651       4.96187834      14.68940793        4       0.00057916       0.00041286       0.00743195
Al       5.72740572       4.96214161      14.68726536        4       0.00102246       0.00022933       0.00819996
Al       8.59133981       4.96212177      14.68717032        4       0.00118371       0.00020239       0.00816467
Al      11.45511597       4.96191888      14.68916546        4       0.00074472       0.00038540       0.00750871
Al       4.29564049       7.44199094      14.68997462        4       0.00047515       0.00043403       0.00731384
Al       7.15951843       7.44210276      14.68842069        4       0.00079865       0.00038379       0.00745911
Al      10.02334670       7.44209154      14.68918337        4       0.00086140       0.00039602       0.00760981
Al      12.88705418       7.44200627      14.69098117        4       0.00048789       0.00051180       0.00705225
Al       1.42986230       0.82812716      17.01978998        3       0.00076399      -0.00398644      -0.01375308
Al       4.29350234       0.82793281      17.01930719        3       0.00004410      -0.00245149      -0.01426926
Al       7.15740585       0.82775542      17.01982373        3       0.00047515      -0.00587704      -0.00667200
Al      10.02128746       0.82792137      17.01936930        3       0.00040807      -0.00370289      -0.01645458
Al       2.86136185       3.30785367      17.01877557        3       0.00016868      -0.00311361      -0.02182101
Al       5.72531898       3.30760876      17.01780951        3      -0.00090142      -0.00228044      -0.02386379
Al       8.59016524       3.30749954      17.01804818        3       0.00177339      -0.00327169      -0.02541738
Al      11.45341300       3.30778765      17.01888545        3       0.00095628      -0.00336482      -0.02271486
Al       4.29353047       5.78849629      17.01845828        3      -0.00028193      -0.00165658      -0.02002579
Al       7.15746993       5.78862072      17.01764238        3      -0.00005592      -0.00202581      -0.02731085
Al      10.02136278       5.78827503      17.01852667        3       0.00060353      -0.00223870      -0.02179418
Al      12.88525738       5.78860534      17.01963570        3       0.00196266      -0.00175921      -0.01296397
Al       5.72544963       8.26865071      17.01892919        3      -0.00028789      -0.00273623      -0.01848690
Al       8.58934535       8.26862147      17.01892247        3       0.00035176      -0.00277279      -0.01775893
Al      11.45334391       8.26894463      17.02032206        3       0.00256580      -0.00076237      -0.00284992
Al      14.31682570       8.26895264      17.02064694        3      -0.00126539      -0.00154032      -0.00117176
Al      -0.00152527       1.65977701      19.28563875        2       0.00042596       0.00024293       0.00578470
Al       2.86449700       1.66371528      19.28969509        2      -0.00158304      -0.00101961       0.00402892
Al       5.72902300       1.67200794      19.27650637        2      -0.00042872      -0.00113424      -0.01080153
Al       8.59043244       1.67130781      19.27823056        2       0.00092535       0.00036192      -0.01168263
Al       1.43465265       4.12159830      19.28583869        2       0.00065413      -0.00067919       0.00028238
Al       4.30318954       4.14005341      19.28550557        2      -0.01166165      -0.00465460      -0.00944702
Al       7.15973736       4.13560558      19.28795044        2       0.00961222      -0.01949737      -0.02243589
Al      10.01181676       4.14010937      19.27965167        2       0.00738716      -0.00397112      -0.00370585
Al       2.86997652       6.60673299      19.29639273        2       0.00080353       0.00003958       0.00303409
Al       5.73150363       6.60697789      19.28695571        2      -0.00089561       0.01546916      -0.00744566
Al       8.58457767       6.60372368      19.28263676        2       0.00436004       0.01194026      -0.00741950
Al      11.45192212       6.60311537      19.28528710        2       0.00149938       0.00108058       0.00455756
Al       4.30552315       9.10134743      19.29090648        2       0.00148574       0.00056617       0.00232939
Al       7.15926212       9.08642083      19.28650055        2       0.00182996       0.00295266       0.00194177
Al      10.00985955       9.10340980      19.28402621        2       0.00054994      -0.00128650       0.01474763
Al      12.88808711       9.09637647      19.33177070        2      -0.00024779       0.00027531       0.00418254
Al      -0.01550066      -0.02421736      21.69503871        1      -0.00243459      -0.00398722       0.01271066
Al       2.87052607      -0.01419423      21.70122261        1       0.00089449      -0.00391645       0.01442486
Al       5.71901192       0.02398693      21.67979068        1      -0.00102086       0.00224701       0.00754125
Al       8.58055461       0.01791628      21.68083466        1      -0.00241469       0.00358733       0.00599715
Al       1.43676760       2.50298997      21.68460796        1       0.00105201       0.00397980       0.01636769
Al       4.32650065       2.49606948      21.62849532        1      -0.00633516      -0.00009831      -0.01563985
Al       7.16772853       2.49478405      21.62620982        1       0.00161963       0.00321643      -0.00006154
Al      10.00023393       2.50655833      21.65739199        1       0.00388670      -0.00034116      -0.02508901
Al       2.89065167       4.96959620      21.67862866        1      -0.00021064      -0.00008508      -0.00463897
Al       5.72460955       4.95238081      21.48673738        1       0.00996203      -0.00364207       0.04840589
Al       8.59048368       4.96916395      21.52973048        1       0.00065831      -0.00808079       0.03904552
Al      11.43647383       4.96673086      21.67153743        1       0.00433757      -0.00241403      -0.01143959
Al       4.32284318       7.41511870      21.69228225        1      -0.00132110       0.00186981       0.00834804
Al       7.15254079       7.40595687      21.64696564        1      -0.00129647      -0.00191450       0.00339215
Al       9.99147187       7.41008566      21.68085414        1      -0.00380024      -0.00338494       0.00820574
Al      12.88915855       7.41694055      21.70893969        1       0.00150102      -0.00709666       0.01937467
C        6.14590584       3.88091107      24.80923901        0       0.05721437       0.02211964       0.10231127
N        7.38109903       3.38063878      24.85471600        0       0.03076609       0.05087392      -0.05909863
C        8.17938861       4.49510382      24.77462977        0      -0.08041476      -0.05350543       0.08436145
N        7.51017382       5.65618886      24.72884109        0      -0.00477852      -0.07606789       0.03219730
N        6.20564801       5.24226120      24.81114314        0       0.02487373      -0.01353558       0.01450652
H        5.23412387       3.29509560      24.74689611        0      -0.08753292       0.03033119      -0.00702675
H        9.26416761       4.43398210      24.70862031        0       0.02286872       0.03901597       0.01580967
H        5.44872911       5.86068029      24.53410231        0      -0.01281016       0.06582334      -0.02182146
