104
Lattice="11.45512985522207 0.0 0.0 5.727564927611035 9.92043345827187 0.0 0.0 0.0 31.691342951089922" Properties=species:S:1:pos:R:3:tags:I:1:forces:R:3 energy=-420.04046630859375 free_energy=-420.04046630859375 stress="0.009899905882775784 3.14321368932724e-07 2.2351741790771484e-08 3.14321368932724e-07 0.009936993941664696 2.736225724220276e-06 2.2351741790771484e-08 2.736225724220276e-06 0.010230004787445068" pbc="T T F"
Al       1.45661537       0.84711849       9.85255199        6       0.00163203       0.00028948       0.00236464
Al       4.32121374       0.84537588       9.87331754        6       0.00163244       0.00027282       0.00219288
Al       7.18263967       0.84666177       9.89276605        6       0.00163583       0.00022165       0.00208008
Al      10.04512035       0.84820563       9.86632100        6       0.00163676       0.00025810       0.00232506
Al       2.88661251       3.33072519       9.87200583        6       0.00156685       0.00031001       0.00210037
Al       5.74894993       3.32907908       9.88020106        6       0.00163814       0.00025616       0.00201250
Al       8.61114833       3.33081139       9.87034098        6       0.00171405       0.00017496       0.00215029
Al      11.47698974       3.33100976       9.86321271        6       0.00163683       0.00026510       0.00219950
Al       4.31441388       5.80967280       9.91241036        6       0.00157605       0.00038607       0.00187566
Al       7.17699452       5.80827072       9.89520320        6       0.00169996       0.00037273       0.00202208
Al      10.04221751       5.80847220       9.89887538        6       0.00171129       0.00036896       0.00206162
Al      12.90653602       5.81058976       9.90786552        6       0.00162714       0.00035555       0.00207552
Al       5.74763618       8.28821564       9.89087441        6       0.00166471       0.00033278       0.00221625
Al       8.61434743       8.28486290       9.88472885        6       0.00166288       0.00038469       0.00228623
Al      11.47790707       8.28544682       9.91835298        6       0.00162655       0.00036937       0.00209667
Al      14.33990187       8.28770897       9.92251354        6       0.00156573       0.00035864       0.00201599
Al       0.07513394       1.65993926      12.30271282        5       0.00111486       0.00099509      -0.00025096
Al       2.93472711       1.65756465      12.30430025        5       0.00137654       0.00155000       0.00181379
Al       5.80027188       1.65741789      12.32619812        5       0.00014869       0.00100929      -0.00802288
Al       8.66961087       1.66036651      12.32302334        5       0.00111691      -0.00046716      -0.00601030
Al       1.50532859       4.14190159      12.32378712        5       0.00065844       0.00086943      -0.00826430
Al       4.36501190       4.13898012      12.32300046        5       0.00035130       0.00148065      -0.00828251
Al       7.23525130       4.13804074      12.32128357        5       0.00237871       0.00223852      -0.01510698
Al      10.10404519       4.14325133      12.31908305        5       0.00102393      -0.00037697      -0.01119599
Al       2.93463684       6.63336800      12.35666193        5       0.00057306      -0.00303875      -0.00655100
Al       5.80167130       6.63076619      12.33861880        5       0.00042933       0.00021189      -0.01339405
Al       8.67127121       6.63259606      12.33795116        5       0.00023164      -0.00089272      -0.01110238
Al      11.53084210       6.63530673      12.36028882        5       0.00172761      -0.00499334      -0.01135954
Al       4.36993104       9.10692892      12.34647732        5       0.00047718       0.00139424      -0.01061990
Al       7.23512602       9.11021004      12.32787089        5       0.00046552      -0.00022739      -0.00618672
Al      10.09906378       9.10794167      12.34940666        5      -0.00102963       0.00067073      -0.00748848
Al      12.95717207       9.10798684      12.36367023        5       0.00317573       0.00025556      -0.00604377
Al       0.08218877       0.00172107      14.65554734        4       0.00061648       0.00079144       0.00123590
Al       2.94347513       0.00036013      14.66292434        4       0.00153510       0.00025482       0.00104253
Al       5.80625529      -0.00477977      14.69000051        4       0.00093204       0.00054750      -0.00084022
Al       8.67172333      -0.00513116      14.67825291        4       0.00170861       0.00091687       0.00188724
Al       1.50879800       2.47049973      14.63781547        4       0.00222909      -0.00258012      -0.01661066
Al       4.36696254       2.46519028      14.63028364        4       0.00199797       0.00075864       0.00146623
Al       7.23987124       2.46074050      14.62938571        4       0.00081409       0.00081775       0.00131453
Al      10.11554620       2.47583810      14.63473429        4      -0.00457645      -0.01102280      -0.00561662
Al       2.92829690       4.95760495      14.64417635        4       0.00692304       0.00122759       0.00143733
Al       5.80506815       4.95640923      14.61022572        4       0.00111341      -0.00109310       0.00768148
Al       8.68501727       4.95684524      14.61822689        4      -0.00089846       0.00166910       0.00514706
Al      11.53969509       4.95919807      14.65200195        4       0.00160050       0.00071747       0.00151332
Al       4.36967033       7.44771098      14.67550745        4       0.00151404      -0.00077519      -0.00579118
Al       7.24301425       7.44626261      14.64494180        4       0.00164783       0.00048396       0.00155884
Al      10.11603269       7.45047261      14.68353515        4      -0.00193335      -0.00065441      -0.00691231
Al      12.96724606       7.45061198      14.70632818        4       0.00218888      -0.00205808      -0.01011625
Al       1.49394612       0.79738798      16.98566015        3       0.00677148      -0.01194429       0.00714272
Al       4.36014461       0.78663937      17.01748726        3      -0.01317129      -0.00850334      -0.00027341
Al       7.21124768       0.76903232      17.02935628        3       0.00910729       0.00167145      -0.00280336
Al      10.07244452       0.77924705      17.03077026        3       0.02227641       0.00022702      -0.02645124
Al       2.92922241       3.25327162      16.94214686        3      -0.00932701       0.01108838       0.01995498
Al       5.78708848       3.26226769      16.94532710        3       0.00335967      -0.00169541      -0.00260729
Al       8.65665246       3.25071533      16.91210405        3       0.01155692       0.00896055       0.03643952
Al      11.53528215       3.25334632      16.96282497        3       0.00124033       0.00103068       0.00119798
Al       4.37335527       5.76043266      16.95307896        3      -0.03537710      -0.00338334       0.00093711
Al       7.22864429       5.75786119      16.93480067        3       0.00621336      -0.00329535      -0.00675436
Al      10.11389463       5.77870143      16.96956736        3      -0.00088680      -0.00915101      -0.00393665
Al      12.95908652       5.77511236      17.00261518        3       0.00435461      -0.03146733       0.00787587
Al       5.80718472       8.25467037      16.97363449        3      -0.00921358       0.01008152       0.02378224
Al       8.67145599       8.23539433      16.99369449        3      -0.00248827       0.03658323       0.01234015
Al      11.54505940       8.24908100      17.07194103        3      -0.00029287      -0.00010553       0.00363879
Al      14.38299562       8.24521838      17.05798478        3       0.00206475       0.00077146       0.00225400
Al       0.05625692       1.56475327      19.33752761        2       0.00076148       0.00758133       0.01786577
Al       2.85385021       1.57614165      19.35169238        2       0.01171619      -0.00309897       0.01610451
Al       5.75840734       1.58675462      19.30163433        2      -0.00852600      -0.00369815       0.01877008
Al       8.61644328       1.58243017      19.31755364        2       0.00372923      -0.00114005      -0.00432793
Al       1.47339880       4.06005869      19.28288108        2       0.00393233       0.00043403       0.02279926
Al       4.31312131       4.04993293      19.22523772        2      -0.00480463       0.00337939      -0.00339828
Al       7.22227976       4.06592496      19.21580120        2       0.00317529       0.00203915      -0.00684819
Al      10.10051650       4.07754971      19.18289870        2      -0.01203466      -0.00659108       0.03909516
Al       2.88900606       6.56040588      19.34318770        2       0.00895302      -0.00332919      -0.00386081
Al       5.76211760       6.57932974      19.22498845        2       0.00178131       0.00166124      -0.00111413
Al       8.63743722       6.56175206      19.23543984        2       0.00175180       0.00056990       0.01368522
Al      11.52123390       6.55530726      19.39199131        2      -0.00260096       0.00689345      -0.00730022
Al       4.34295124       9.03915739      19.41282905        2       0.00345153       0.00098141       0.00542891
Al       7.21160275       9.06391139      19.35560988        2       0.00257282       0.00047189      -0.00217254
Al      10.08088565       9.03124374      19.40229082        2      -0.00684642       0.00269893       0.00612294
Al      12.94579294       9.03510656      19.56066074        2      -0.01135028      -0.00561619      -0.01234908
Al      -0.15867347      -0.23186470      22.04912734        1       0.00002389       0.00374827      -0.00732343
Al       2.74244073      -0.10273892      22.08878751        1       0.00130141      -0.00055070      -0.00249469
Al       5.52623085      -0.04402932      21.92321445        1       0.00822463       0.00104223      -0.00549849
Al       8.44732971      -0.03093099      22.00803160        1       0.00668667      -0.00100221      -0.00145185
Al       1.43090398       2.51772994      22.10373678        1      -0.00539364      -0.01050298      -0.02515799
Al       4.25495728       2.45085678      21.58916989        1       0.00835368       0.00035752       0.00436192
Al       7.11996090       2.45740047      21.64584356        1      -0.00793069      -0.00630749      -0.01125224
Al      10.00302636       2.39892108      21.56945046        1       0.01226462       0.00067677       0.01956946
Al       2.86476753       4.89861824      21.66497329        1      -0.01285489      -0.00489336      -0.03018245
Al       5.72171265       4.89264122      21.42613421        1      -0.00745440       0.00021372       0.02528637
Al       8.50071293       4.84054902      21.61432497        1       0.00680487       0.00142360      -0.01736772
Al      11.34886593       4.89461313      21.66981580        1      -0.00141361       0.00326073       0.00264687
Al       4.20321540       7.31423396      21.71016372        1       0.00672259       0.00638940      -0.00885846
Al       7.05299111       7.38145216      21.57472076        1       0.00609031      -0.01149222      -0.00432758
Al       9.78749900       7.25660339      21.77381811        1       0.00185096       0.00074102       0.00037776
Al      12.81949852       7.32534918      22.08549368        1      -0.00459404      -0.00404289      -0.01702477
C        5.53377364       4.62561757      24.78242267        0       0.03474189      -0.13310948       0.03104614
N        6.35227783       3.61552536      25.10663074        0       0.02710582       0.12003405       0.00577225
C        7.56533610       4.23121813      25.28387434        0      -0.26487926       0.12069938      -0.11033077
N        7.55642239       5.55236941      25.04268877        0      -0.08214768      -0.05264174      -0.02043201
N        6.23977235       5.79121532      24.76366557        0       0.04924517      -0.07213329       0.08262622
H        4.47869869       4.54243428      24.51450795        0       0.12852430       0.03598211       0.01949075
H        8.48620297       3.71387690      25.53794316        0       0.04077630      -0.05782856       0.02502289
H        5.94586261       6.63985634      24.28164700        0      -0.00175589       0.06018054      -0.01013892
