104
Lattice="11.45512985522207 0.0 0.0 5.727564927611035 9.92043345827187 0.0 0.0 0.0 31.691342951089922" Properties=species:S:1:pos:R:3:tags:I:1:forces:R:3 energy=-419.888427734375 free_energy=-419.888427734375 stress="0.006074714008718729 1.194886863231659e-06 -3.9301812648773193e-07 1.194886863231659e-06 0.006124557927250862 2.6477500796318054e-06 -3.9301812648773193e-07 2.6477500796318054e-06 0.00636809878051281" pbc="T T F"
Al       1.43014618       0.82764483       9.99472747        6      -0.00091670       0.00041081       0.00532097
Al       4.29392363       0.82765592       9.99471945        6      -0.00091234       0.00039445       0.00533506
Al       7.15770348       0.82765279       9.99472058        6      -0.00091447       0.00039937       0.00533903
Al      10.02148644       0.82765531       9.99474458        6      -0.00091607       0.00040906       0.00534376
Al       2.86202876       3.30775800       9.99469883        6      -0.00093429       0.00041141       0.00533014
Al       5.72581517       3.30775386       9.99469496        6      -0.00092263       0.00038983       0.00531982
Al       8.58959397       3.30775534       9.99469294        6      -0.00092546       0.00039195       0.00530433
Al      11.45336169       3.30775557       9.99471109        6      -0.00092240       0.00040712       0.00532120
Al       4.29391280       5.78787535       9.99471370        6      -0.00093750       0.00041353       0.00530838
Al       7.15769917       5.78787789       9.99471064        6      -0.00093444       0.00040142       0.00531222
Al      10.02148688       5.78786942       9.99470726        6      -0.00091730       0.00040291       0.00529422
Al      12.88523896       5.78787357       9.99473218        6      -0.00093575       0.00042002       0.00530840
Al       5.72579864       8.26799242       9.99472200        6      -0.00093008       0.00041402       0.00531108
Al       8.58959365       8.26798826       9.99471810        6      -0.00091879       0.00040462       0.00530487
Al      11.45337503       8.26798025       9.99471434        6      -0.00090601       0.00040798       0.00531505
Al      14.31713928       8.26799402       9.99475300        6      -0.00093090       0.00041920       0.00532768
Al       0.00323150       1.65519092      12.39831871        5       0.00098374      -0.00064219      -0.02514091
Al       2.86698267       1.65528351      12.39858259        5       0.00103133      -0.00065043      -0.02505043
Al       5.73076550       1.65512685      12.39913531        5       0.00090075      -0.00060451      -0.02465516
Al       8.59463635       1.65513346      12.39857230        5       0.00098412      -0.00064100      -0.02458463
Al       1.43509250       4.13540462      12.39864954        5       0.00094633      -0.00047945      -0.02494072
Al       4.29905172       4.13542588      12.39934534        5       0.00085600      -0.00066298      -0.02493082
Al       7.16275250       4.13552425      12.39944948        5       0.00091488      -0.00060996      -0.02490630
Al      10.02630603       4.13533510      12.39901888        5       0.00114547      -0.00060757      -0.02502255
Al       2.86700861       6.61549029      12.39844393        5       0.00099056      -0.00052499      -0.02454535
Al       5.73077160       6.61560308      12.39913850        5       0.00095691      -0.00056568      -0.02508842
Al       8.59478433       6.61557203      12.39925008        5       0.00094055      -0.00051038      -0.02527765
Al      11.45827779       6.61553765      12.39861892        5       0.00114454      -0.00059967      -0.02443410
Al       4.29884698       9.09537676      12.39814459        5       0.00096116      -0.00053621      -0.02451115
Al       7.16265871       9.09546875      12.39801124        5       0.00105119      -0.00049682      -0.02490792
Al      10.02670019       9.09534385      12.39868147        5       0.00103189      -0.00046265      -0.02481489
Al      12.89026373       9.09562040      12.39819159        5       0.00101818      -0.00056233      -0.02403035
Al      -0.00067468       0.00099985      14.67900710        4       0.00104214       0.00033978       0.01332209
Al       2.86309237       0.00096708      14.67889005        4       0.00111827       0.00023663       0.01318959
Al       5.72688140       0.00096260      14.67906072        4       0.00113895       0.00023876       0.01335514
Al       8.59064780       0.00091805      14.67924114        4       0.00099105       0.00020254       0.01361365
Al       1.43113475       2.48112852      14.67872754        4       0.00098762       0.00041782       0.01308417
Al       4.29485944       2.48111445      14.67826825        4       0.00084027       0.00031079       0.01258869
Al       7.15871312       2.48107677      14.67804648        4       0.00094514       0.00027621       0.01225325
Al      10.02258901       2.48107471      14.67839238        4       0.00115878       0.00027912       0.01256550
Al       2.86299930       4.96120341      14.67859649        4       0.00086871       0.00040671       0.01311702
Al       5.72673933       4.96130694      14.67775821        4       0.00090646       0.00051005       0.01221718
Al       8.59056922       4.96129852      14.67773253        4       0.00104180       0.00048571       0.01218998
Al      11.45437125       4.96121032      14.67855030        4       0.00096291       0.00044468       0.01308715
Al       4.29490872       7.44131648      14.67882789        4       0.00090567       0.00036274       0.01342310
Al       7.15871554       7.44136100      14.67826713        4       0.00100238       0.00041681       0.01238165
Al      10.02250452       7.44135951      14.67854558        4       0.00110515       0.00039877       0.01290187
Al      12.88628548       7.44131178      14.67924584        4       0.00095740       0.00046738       0.01361606
Al       1.43046163       0.82776997      17.01476126        3      -0.00071994      -0.00039781       0.00682570
Al       4.29420862       0.82767712      17.01467362        3      -0.00083379      -0.00079922       0.00579413
Al       7.15802221       0.82768648      17.01467967        3      -0.00074752      -0.00078365       0.00625631
Al      10.02183104       0.82771235      17.01471693        3      -0.00057167      -0.00092496       0.00586448
Al       2.86226867       3.30776109      17.01467948        3      -0.00133128      -0.00118551       0.00504648
Al       5.72612096       3.30766588      17.01444226        3      -0.00102652      -0.00139688       0.00332164
Al       8.59011992       3.30766083      17.01453400        3       0.00072084      -0.00168166       0.00369267
Al      11.45376215       3.30774023      17.01471399        3      -0.00005402      -0.00123396       0.00543752
Al       4.29423816       5.78796942      17.01455857        3      -0.00082458      -0.00031120       0.00428989
Al       7.15806129       5.78799843      17.01449829        3      -0.00062052      -0.00006764       0.00300709
Al      10.02184878       5.78792407      17.01459913        3      -0.00042320      -0.00067416       0.00465303
Al      12.88562917       5.78800500      17.01473074        3      -0.00031152      -0.00004561       0.00623628
Al       5.72613028       8.26810653      17.01463890        3      -0.00085335      -0.00021826       0.00513886
Al       8.58992417       8.26810131      17.01462629        3      -0.00056775      -0.00021826       0.00516355
Al      11.45373334       8.26814776      17.01473736        3      -0.00046934       0.00045564       0.00702567
Al      14.31749248       8.26816571      17.01479748        3      -0.00071040       0.00046976       0.00733280
Al      -0.00091434       1.65697437      19.30877060        2      -0.00119112       0.00212586      -0.01347113
Al       2.86501340       1.65958953      19.31113238        2      -0.00153314       0.00262745      -0.01007960
Al       5.72840547       1.66512900      19.30429258        2      -0.00027574       0.00347557      -0.01502186
Al       8.59084993       1.66438380      19.30566062        2      -0.00111801       0.00376817      -0.01559437
Al       1.43357802       4.12672423      19.30996661        2       0.00054714      -0.00447718      -0.01645733
Al       4.30078708       4.13776784      19.31109423        2       0.00032333       0.00102419      -0.01543845
Al       7.15877213       4.13597613      19.31464218        2       0.00072792      -0.00147942      -0.01746362
Al      10.01597190       4.13765674      19.30739669        2      -0.00363575       0.00178604      -0.01814259
Al       2.86797190       6.60890037      19.31663887        2       0.00044034      -0.00114818      -0.01252840
Al       5.72957201       6.60847530      19.31227831        2       0.00081985      -0.00010367      -0.01481733
Al       8.58661407       6.60663234      19.30931507        2      -0.00111160      -0.00101305      -0.01600456
Al      11.45275409       6.60665060      19.30928084        2      -0.00054774      -0.00174050      -0.01421383
Al       4.30173410       9.09772943      19.31228336        2       0.00167788       0.00271443      -0.01195493
Al       7.15929817       9.08772650      19.30883987        2      -0.00059056       0.00005526      -0.01149144
Al      10.01507664       9.09897219      19.30730386        2      -0.00391476       0.00344594      -0.01231193
Al      12.88763414       9.09519896      19.33597312        2      -0.00043528       0.00077545       0.00430529
Al      -0.01018413      -0.01548915      21.68790933        1      -0.00351378      -0.00519312       0.01113420
Al       2.86802611      -0.00898390      21.69175621        1       0.00078583      -0.00351268       0.01255104
Al       5.72193006       0.01528571      21.67996566        1      -0.00244252       0.00355017       0.00601105
Al       8.58503408       0.01069773      21.68076514        1      -0.00322356       0.00441059       0.00470545
Al       1.43486383       2.49370521      21.68137459        1       0.00094290       0.00547853       0.00992897
Al       4.31827057       2.49117907      21.64508226        1       0.00149949       0.00386279      -0.01062549
Al       7.16449018       2.48788263      21.64366245        1       0.00141326       0.00563206      -0.00372057
Al      10.00771991       2.49699012      21.66891275        1      -0.00311780       0.00383391      -0.00326081
Al       2.88375791       4.96687251      21.67970424        1       0.00245687       0.00114132      -0.00341084
Al       5.72281357       4.95570691      21.54522766        1       0.00349891      -0.00560020      -0.01512736
Al       8.59039002       4.96794460      21.57978196        1       0.00082894      -0.00130104      -0.01746237
Al      11.44279731       4.96491507      21.67592029        1      -0.00216818       0.00171576       0.00317918
Al       4.31654761       7.42058313      21.68650880        1       0.00039436      -0.00143754       0.00681633
Al       7.15530648       7.41652797      21.65446399        1      -0.00306791      -0.00493942      -0.00311507
Al      10.00278735       7.41996940      21.67894870        1      -0.00639378      -0.00397067       0.00704564
Al      12.88815002       7.42684519      21.69578859        1       0.00052952      -0.00690612       0.01574693
C        6.15620095       3.86417644      24.80822687        0      -0.09233551       0.08985494      -0.02932962
N        7.40545157       3.38327080      24.80769771        0      -0.17919575       0.00234040       0.03813370
C        8.18022607       4.50846195      24.74912452        0       0.17082213      -0.03906926       0.01910858
N        7.50071315       5.65583959      24.67275847        0      -0.12813589       0.06371614       0.07316278
N        6.20479010       5.23223254      24.75355498        0      -0.15765440      -0.03801872       0.01697526
H        5.23415990       3.27880253      24.73676147        0       0.18617196       0.14448805       0.04143854
H        9.26696088       4.49039268      24.68171207        0       0.00937708      -0.03129926       0.02695000
H        5.43504520       5.87948223      24.55814966        0       0.20463388      -0.19472581       0.02359925
