104
Lattice="11.45512985522207 0.0 0.0 5.727564927611035 9.92043345827187 0.0 0.0 0.0 31.691342951089922" Properties=species:S:1:pos:R:3:tags:I:1:forces:R:3 energy=-419.93939208984375 free_energy=-419.93939208984375 stress="0.007834339514374733 3.4226104617118835e-07 -6.51925802230835e-09 3.4226104617118835e-07 0.007885324768722057 1.742970198392868e-06 -6.51925802230835e-09 1.742970198392868e-06 0.008061973378062248" pbc="T T F"
Al       1.57767816       0.85494038       9.91749095        6       0.00020073      -0.00028046       0.00051538
Al       4.44322729       0.85457308       9.93477989        6       0.00011386      -0.00027621       0.00040205
Al       7.30308010       0.85373533       9.94393030        6       0.00023311      -0.00021588       0.00005064
Al      10.16598977       0.85514554       9.92610197        6       0.00022808      -0.00031959       0.00027408
Al       3.00771914       3.33721207       9.91437985        6       0.00017248      -0.00029056       0.00050533
Al       5.87168416       3.33853848       9.92688727        6       0.00018016      -0.00037381       0.00013855
Al       8.73333131       3.33800881       9.91484604        6       0.00025338      -0.00027558       0.00033276
Al      11.59722284       3.33709750       9.90585991        6       0.00027638      -0.00023063       0.00052371
Al       4.43740919       5.81940103       9.94615448        6       0.00007574      -0.00047561      -0.00036265
Al       7.30157775       5.82068393       9.94052603        6       0.00022089      -0.00044893      -0.00004481
Al      10.16419833       5.81840474       9.93788976        6       0.00033950      -0.00025173       0.00020777
Al      13.02853250       5.81792225       9.93765585        6       0.00017304      -0.00029343       0.00027272
Al       5.87076626       8.29565178       9.94952806        6       0.00015307      -0.00022247      -0.00004992
Al       8.73565614       8.29727411       9.95047233        6       0.00029482      -0.00033565       0.00024794
Al      11.59890543       8.29625432       9.96389952        6       0.00014517      -0.00042892       0.00014587
Al      14.45962985       8.29584945       9.96911480        6       0.00020304      -0.00040783      -0.00040736
Al       0.17025446       1.65419406      12.33330754        5       0.00069818      -0.00030546      -0.00289405
Al       3.03090503       1.65356082      12.34148625        5       0.00090605      -0.00124544      -0.00383883
Al       5.89833738       1.65065629      12.34800715        5      -0.00063196      -0.00001759       0.00093649
Al       8.76605495       1.65382751      12.34153736        5      -0.00082104      -0.00042959       0.00003209
Al       1.59682599       4.13158608      12.33620055        5       0.00062726       0.00008213      -0.00017468
Al       4.46083416       4.12916342      12.33339152        5       0.00055113       0.00026779       0.00273649
Al       7.33435290       4.13043925      12.33197655        5      -0.00124143      -0.00014559       0.00356938
Al      10.19464911       4.13123332      12.33034695        5       0.00193643       0.00068601       0.00282859
Al       3.02782771       6.61401738      12.35479266        5       0.00089367      -0.00078499       0.00360383
Al       5.90069354       6.61402552      12.34508906        5      -0.00119623      -0.00005195       0.00176618
Al       8.76847593       6.61596781      12.35607886        5       0.00130024       0.00100511      -0.00020105
Al      11.62380452       6.61647126      12.36174087        5       0.00031033      -0.00149098       0.00417265
Al       4.46749090       9.09928725      12.35643072        5       0.00022458      -0.00170130       0.00017010
Al       7.33214446       9.09958346      12.35579335        5       0.00090161      -0.00044241      -0.00262333
Al      10.19558315       9.09639389      12.37032745        5      -0.00046427      -0.00011604       0.00354108
Al      13.05743651       9.09677446      12.37143535        5      -0.00025219      -0.00021625       0.00278363
Al       0.16943118      -0.01425669      14.66013481        4      -0.00093962      -0.00165561      -0.00073604
Al       3.03301694      -0.01448690      14.67584788        4       0.00001187      -0.00142405       0.00015450
Al       5.89890718      -0.02706121      14.69072165        4      -0.00033265      -0.00019434       0.00115975
Al       8.76112355      -0.01401767      14.67068014        4      -0.00021433      -0.00088568       0.00094562
Al       1.59685888       2.45240541      14.64108823        4      -0.00022044       0.00000935       0.00089501
Al       4.45955950       2.44834223      14.64147740        4      -0.00053272      -0.00064726       0.00228284
Al       7.32437311       2.44653195      14.64144040        4       0.00047936      -0.00005292       0.00164628
Al      10.19609847       2.46098108      14.64356139        4      -0.00090824      -0.00123314       0.00053399
Al       3.02050496       4.93129828      14.64577093        4      -0.00046643      -0.00027923       0.00088639
Al       5.88566046       4.92955471      14.63480503        4       0.00029195      -0.00058324      -0.00012219
Al       8.76062321       4.93269188      14.63577579        4       0.00054666       0.00008318       0.00212732
Al      11.61844227       4.93803003      14.65873817        4       0.00009195      -0.00050248       0.00040645
Al       4.45315769       7.41576074      14.65081780        4       0.00021105       0.00020369       0.00095300
Al       7.33015961       7.41524646      14.64091985        4       0.00127907       0.00090323       0.00397162
Al      10.20623157       7.43088626      14.69856984        4      -0.00515706      -0.00469485      -0.00446345
Al      13.04528538       7.42125320      14.67644741        4       0.00010540      -0.00038692       0.00185094
Al       1.54698283       0.73887771      16.99604635        3       0.00083901       0.00039605       0.00076399
Al       4.41994961       0.72587209      17.02772181        3      -0.00702360      -0.00296235      -0.00223082
Al       7.28049344       0.71752687      17.02429665        3      -0.00023788      -0.00008496      -0.00068588
Al      10.14739782       0.73876636      16.99956532        3       0.00034707       0.00006607       0.00107873
Al       2.96250859       3.19932957      16.96862256        3       0.00136329      -0.00019702       0.00037778
Al       5.84755591       3.19526355      16.95816713        3      -0.00843609      -0.00397160      -0.00942723
Al       8.72256487       3.19999878      16.96925290        3       0.00025327       0.00010166      -0.00067977
Al      11.57198908       3.19624822      16.98880652        3       0.00064862       0.00068128      -0.00217019
Al       4.40615644       5.69064774      16.94684762        3      -0.00086748      -0.00054679      -0.00070856
Al       7.27842989       5.69127799      16.93551829        3       0.00900953       0.00425437      -0.00168466
Al      10.16196313       5.69831103      16.98818831        3      -0.00338265      -0.00050271       0.00038918
Al      12.98762876       5.69833104      16.99854624        3      -0.00065801      -0.01067888      -0.01431364
Al       5.86021026       8.19525073      16.95215566        3      -0.00214492      -0.00483444       0.00140620
Al       8.73693421       8.19800672      16.99627464        3      -0.00052229      -0.00083731       0.00228340
Al      11.58104813       8.18068534      17.10326601        3       0.00003986       0.00019765      -0.00051487
Al      14.42444000       8.18540764      16.99881671        3       0.00038314      -0.00052663       0.00046449
Al       0.06586539       1.50627449      19.39125941        2       0.00189286       0.00720607      -0.00784110
Al       2.89735563       1.49714276      19.33975831        2       0.00547874      -0.00108874      -0.00211330
Al       5.78270336       1.50093442      19.30829117        2      -0.00185120      -0.00146687       0.00161421
Al       8.66731001       1.50123273      19.31742865        2      -0.00048383       0.00262447       0.00225092
Al       1.48685787       3.95148726      19.29478078        2       0.00039399       0.00239931       0.00283716
Al       4.33222158       3.98118828      19.24319733        2       0.00446434       0.00046701      -0.00546858
Al       7.22759702       3.99616080      19.20685642        2       0.00120659       0.00134251      -0.00429426
Al      10.13001364       3.98583420      19.26946354        2      -0.00021754      -0.00107722      -0.00293532
Al       2.90202804       6.45898389      19.25285554        2       0.00180876       0.00323264       0.00549241
Al       5.79558113       6.48023617      19.20826532        2      -0.00312336      -0.00277782      -0.00678275
Al       8.67747409       6.49835807      19.23470758        2      -0.00000401       0.00005090      -0.00517279
Al      11.52081235       6.44619889      19.39858025        2      -0.00101698      -0.00189079      -0.00629495
Al       4.37762244       8.96172981      19.26865809        2      -0.00091819       0.00100213      -0.00059410
Al       7.23301665       8.99021558      19.27255586        2       0.00075344      -0.00158563       0.00546897
Al      10.10536260       8.95645221      19.50312531        2      -0.00051126      -0.00082639       0.00028305
Al      12.98397870       8.97639984      19.47476600        2      -0.00116545      -0.00148535      -0.00044577
Al      -0.07911058      -0.21727983      21.69489176        1       0.00088059       0.01485018       0.00011817
Al       2.65972745      -0.18161774      22.08683607        1      -0.00122000      -0.00382772      -0.00261387
Al       5.64275232      -0.15498962      22.03471707        1      -0.00165355       0.00073710       0.00392171
Al       8.56177025      -0.22175855      22.05354148        1      -0.00091760      -0.00273410       0.00291471
Al       1.39772099       2.34830595      22.08209972        1       0.00035851       0.00169426       0.00002482
Al       4.25754357       2.32283319      21.61089202        1       0.00337836       0.00308056       0.00313245
Al       7.10767746       2.35431411      21.59339257        1      -0.00315716      -0.00729122       0.00033071
Al       9.89383643       2.33264076      21.74005511        1       0.00221904      -0.00334044       0.00324342
Al       2.84843585       4.78506340      21.56348382        1      -0.00059909       0.00233704       0.00036419
Al       5.68957868       4.79987382      21.51923732        1       0.00260392       0.00021644      -0.00361969
Al       8.48831282       4.80863438      21.54252708        1       0.00076790      -0.00458275       0.00203175
Al      11.33512423       4.83088216      22.04165112        1       0.00412515       0.00507305       0.00057008
Al       4.23096371       7.29007014      21.51435350        1       0.00525369      -0.01116139       0.01339118
Al       7.03872447       7.25942688      21.53811566        1      -0.00136754       0.00264575       0.00034371
Al       9.72686519       7.23032296      21.91628551        1       0.00548119       0.00239779      -0.00112856
Al      12.80214355       7.23460466      21.74567479        1       0.00242337       0.00731078      -0.00039551
C        4.75228256       5.42139584      24.79984457        0       0.00878527      -0.00340666      -0.00338831
N        5.27990379       4.19454152      24.85510966        0      -0.00324980       0.01473503       0.00203551
C        6.62603282       4.43031025      24.95874051        0       0.00713666       0.01911708       0.00403713
N        6.96620684       5.72591698      24.94056643        0       0.01214401      -0.00333381       0.00231735
N        5.74904687       6.34864869      24.87915955        0       0.00044619      -0.01133124      -0.00235594
H        3.71031181       5.67978726      24.62857365        0      -0.00448215      -0.00781602      -0.00084588
H        7.38374034       3.64545663      24.97403429        0      -0.02513501       0.00968997       0.00355610
H        5.69068191       7.29678717      24.51054396        0      -0.01179424       0.00963143      -0.00998418
