104
Lattice="11.45512985522207 0.0 0.0 5.727564927611035 9.92043345827187 0.0 0.0 0.0 31.691342951089922" Properties=species:S:1:pos:R:3:tags:I:1:forces:R:3 energy=-420.08087158203125 free_energy=-420.08087158203125 stress="0.008891792967915535 4.6566128730773926e-09 1.0803341865539551e-07 4.6566128730773926e-09 0.008939031511545181 2.0936131477355957e-06 1.0803341865539551e-07 2.0936131477355957e-06 0.00915687158703804" pbc="T T F"
Al       1.54006569       0.85454234       9.88482342        6       0.00020282       0.00007386       0.00120698
Al       4.40511851       0.85543903       9.90489988        6       0.00021593      -0.00005989       0.00106893
Al       7.26493712       0.85501897       9.91919922        6       0.00026792      -0.00007017       0.00092501
Al      10.12786222       0.85449118       9.89542127        6       0.00026594       0.00006518       0.00123081
Al       2.97021320       3.33841615       9.88862938        6       0.00021116       0.00004200       0.00114659
Al       5.83157593       3.34012817       9.90086369        6       0.00035635      -0.00006838       0.00111972
Al       8.69369888       3.33965983       9.88743937        6       0.00035978      -0.00001520       0.00132517
Al      11.55865728       3.33890256       9.87863877        6       0.00029106       0.00001878       0.00132345
Al       4.39751835       5.81776393       9.92485073        6       0.00033481       0.00007706       0.00091275
Al       7.26114198       5.81850276       9.91347381        6       0.00035139       0.00005157       0.00119908
Al      10.12465938       5.81808287       9.91265462        6       0.00032795      -0.00001245       0.00115000
Al      12.98992716       5.81743512       9.91583183        6       0.00024951       0.00004222       0.00102364
Al       5.83099407       8.29372524       9.91999882        6       0.00032028       0.00019016       0.00113204
Al       8.69676972       8.29403818       9.91853248        6       0.00031491       0.00017105       0.00115727
Al      11.55951496       8.29254728       9.93991337        6       0.00032098       0.00017526       0.00095073
Al      14.42245318       8.29302379       9.94597083        6       0.00024560       0.00022359       0.00085197
Al       0.14797061       1.66669203      12.31072820        5      -0.00040412       0.00015376       0.00251586
Al       3.00923353       1.66616443      12.31545581        5      -0.00016004       0.00060332       0.00324592
Al       5.87387782       1.66716439      12.33394477        5       0.00053828      -0.00083552      -0.00097441
Al       8.73864662       1.66647891      12.32748786        5       0.00040177       0.00018983      -0.00122028
Al       1.57595618       4.14755373      12.31847054        5       0.00037841      -0.00194688       0.00236796
Al       4.44242402       4.14824716      12.32919241        5      -0.00006874      -0.00169478      -0.00196203
Al       7.30969173       4.15082165      12.33138765        5       0.00020732      -0.00249177      -0.00500612
Al      10.17274483       4.14865855      12.32481218        5      -0.00139113      -0.00308000      -0.00505546
Al       3.01127729       6.62789724      12.35066714        5      -0.00069680       0.00072119       0.00316837
Al       5.87812603       6.63389845      12.34843931        5      -0.00065656      -0.00164701      -0.00213665
Al       8.74157914       6.63435327      12.34713218        5       0.00013786      -0.00141682       0.00192264
Al      11.60165027       6.62552312      12.35172565        5       0.00040580       0.00224261       0.00080940
Al       4.44492323       9.11213811      12.35274401        5      -0.00074845      -0.00003898      -0.00047414
Al       7.30651715       9.11130756      12.33759254        5       0.00012527       0.00030259       0.00207065
Al      10.16877482       9.11056002      12.35771452        5       0.00160488      -0.00086407      -0.00148882
Al      13.03642499       9.11159256      12.36635233        5      -0.00127840      -0.00111180      -0.00027856
Al       0.15671637       0.00021771      14.66231499        4      -0.00270863      -0.00330929      -0.00315859
Al       3.01446150      -0.00150242      14.65710303        4      -0.00036313      -0.00147976       0.00089954
Al       5.87858878      -0.00241614      14.67740920        4      -0.00043669      -0.00166575       0.00177143
Al       8.74304605      -0.00410636      14.68383742        4      -0.00109472      -0.00109120      -0.00254921
Al       1.58060778       2.46469353      14.63272003        4      -0.00062704      -0.00047140      -0.00098326
Al       4.44153480       2.46006239      14.63382191        4      -0.00014520       0.00029447       0.00107310
Al       7.31172418       2.46819812      14.63992399        4      -0.00135815      -0.00158377      -0.00022154
Al      10.17765935       2.46115530      14.63044579        4      -0.00038586       0.00040589       0.00092947
Al       3.00053805       4.93944162      14.63938859        4       0.00030585       0.00094586       0.00093030
Al       5.87589227       4.95062770      14.63870072        4      -0.00026978      -0.00003768       0.00054476
Al       8.75275226       4.95253566      14.64670509        4      -0.00115941      -0.00027382      -0.00072177
Al      11.60112157       4.95134381      14.65096254        4       0.00065141      -0.00184015      -0.00385409
Al       4.44349810       7.44025231      14.66977888        4      -0.00151649      -0.00176726      -0.00273938
Al       7.31563008       7.44759899      14.66501471        4       0.00037953      -0.00063351       0.00035298
Al      10.18904989       7.44075321      14.68351052        4      -0.00076910       0.00051541       0.00117396
Al      13.03081861       7.43956040      14.67479130        4      -0.00003404      -0.00028631       0.00148911
Al       1.54747981       0.75142204      17.00249721        3       0.00005733       0.00036844       0.00117525
Al       4.38949998       0.72566772      17.00848667        3       0.00500741       0.00577773       0.00132537
Al       7.26804237       0.73163686      17.02602061        3      -0.00065149      -0.00015364      -0.00058918
Al      10.15443933       0.75108598      17.00393311        3      -0.00117078      -0.00024260       0.00144533
Al       2.96471283       3.21666733      16.95451768        3      -0.00081981      -0.00117635       0.00136047
Al       5.82104825       3.20699888      16.94631275        3       0.00386780       0.00034701      -0.00033732
Al       8.70378954       3.20678763      16.95130457        3       0.00604785       0.00261609       0.00047964
Al      11.57458833       3.21565103      16.95239064        3      -0.00180808       0.00005493       0.00328658
Al       4.38956916       5.70969770      16.95044475        3       0.00092714      -0.00062617      -0.00490032
Al       7.28744636       5.71730548      16.94273779        3      -0.00254023      -0.00081417      -0.00173696
Al      10.16129514       5.72256291      16.98226649        3      -0.00446050      -0.00085505      -0.00053580
Al      12.98868824       5.70027088      16.98505217        3       0.00032952       0.00213324       0.00101070
Al       5.84353205       8.20249972      16.99249406        3       0.00066896       0.00182081      -0.00276574
Al       8.71805772       8.21121366      17.02274888        3      -0.00299364      -0.00604503      -0.01679300
Al      11.57249333       8.20093079      17.08356522        3       0.00063103      -0.00004673       0.00028297
Al      14.41625953       8.19565183      17.00591849        3      -0.00009564       0.00136387       0.00290692
Al       0.07517200       1.53315403      19.36754496        2      -0.00087001      -0.00131881       0.00434705
Al       2.90149794       1.52418867      19.34839584        2      -0.00405286      -0.00112932       0.00142273
Al       5.75360862       1.52015334      19.30190987        2       0.00462026       0.00226900      -0.00102479
Al       8.67400513       1.51785021      19.30601030        2      -0.00267849       0.00086954       0.00418044
Al       1.47716568       3.99352272      19.27896119        2       0.00137022      -0.00192899       0.00010785
Al       4.33164482       4.00162695      19.22406928        2       0.00010283       0.00247560       0.00909241
Al       7.23228034       4.01679588      19.19800140        2      -0.00377043      -0.00438040       0.00263947
Al      10.12142317       4.01535531      19.23567102        2      -0.00155651      -0.00059225       0.00710929
Al       2.90272443       6.49631108      19.27913789        2       0.00159519      -0.00135134       0.00151995
Al       5.77525323       6.49281339      19.20833217        2       0.00411230       0.00035499       0.00418655
Al       8.67644582       6.50459771      19.24148769        2      -0.00056697       0.00187902      -0.00192068
Al      11.52832792       6.47426066      19.38540286        2      -0.00162172       0.00125770       0.00283621
Al       4.37331262       8.97537810      19.31212874        2      -0.00007201       0.00254342       0.00703157
Al       7.23319719       9.00568258      19.32844673        2      -0.00147602       0.00029093      -0.00328520
Al      10.07796691       8.97341418      19.44804343        2       0.00204408      -0.00081965       0.00420350
Al      12.95733580       8.98629710      19.49110282        2       0.00053429       0.00032581       0.00075687
Al      -0.09088085      -0.25656059      21.85133117        1      -0.00361984       0.00246624      -0.00495458
Al       2.67559258      -0.19366798      22.12047636        1       0.00292447       0.00135891      -0.00343879
Al       5.61345056      -0.11070977      21.91753648        1      -0.00236993      -0.00036822       0.00524616
Al       8.54331862      -0.12659229      22.03439508        1      -0.00093366      -0.00168982      -0.00030975
Al       1.38876606       2.39540436      22.01413120        1       0.00165880       0.00069440       0.00393048
Al       4.25851842       2.38485316      21.64118510        1       0.00068540      -0.00065162      -0.00649527
Al       7.11061247       2.36172301      21.57895340        1       0.00055855       0.00324378       0.00254666
Al       9.97134938       2.33866011      21.69300978        1      -0.00223663       0.00054198      -0.00324169
Al       2.79820290       4.82472685      21.58840966        1       0.00210248       0.00003831      -0.00453155
Al       5.67516856       4.81981527      21.51321322        1       0.00161788      -0.00188334      -0.00369031
Al       8.45719384       4.80302371      21.56454996        1       0.00209637       0.00041513      -0.00207233
Al      11.25015313       4.85031765      21.94197904        1       0.00531943       0.00331741      -0.00151807
Al       4.21478278       7.27585899      21.62212958        1       0.00055106       0.00080645      -0.00477377
Al       7.01195530       7.26233652      21.56955379        1       0.00403296       0.00058033      -0.00674746
Al       9.71579881       7.25429376      21.88795384        1       0.00177082      -0.00345023      -0.00064383
Al      12.79517878       7.26635690      21.85214253        1       0.00056712      -0.00218254      -0.00160130
C        4.96241924       5.19462561      24.86157311        0      -0.00278950       0.01421545      -0.00262654
N        5.55037785       4.00198450      24.98654946        0      -0.00931622      -0.00243524      -0.00102358
C        6.88045992       4.31113502      25.07475483        0       0.01120515       0.00675710      -0.00341913
N        7.15619955       5.62050447      24.98942973        0       0.01068128       0.00537631       0.00419382
N        5.91015801       6.17512899      24.89848697        0      -0.01349412       0.00552925      -0.00812415
H        3.91050457       5.39083201      24.67318252        0      -0.01379948      -0.00280044      -0.00411179
H        7.67165890       3.56325066      25.12724881        0       0.00146525       0.00893759       0.00172906
H        5.79221831       7.10991812      24.50627255        0       0.00711147      -0.02179629       0.00670131
