104
Lattice="11.45512985522207 0.0 0.0 5.727564927611035 9.92043345827187 0.0 0.0 0.0 31.691342951089922" Properties=species:S:1:pos:R:3:tags:I:1:forces:R:3 energy=-419.9901123046875 free_energy=-419.9901123046875 stress="0.008787927217781544 1.424923539161682e-07 6.05359673500061e-08 1.424923539161682e-07 0.00883447378873825 1.9674189388751984e-06 6.05359673500061e-08 1.9674189388751984e-06 0.009036919102072716" pbc="T T F"
Al       1.56237497       0.85528224       9.89366150        6       0.00005059      -0.00001271       0.00134607
Al       4.42774719       0.85540840       9.91314589        6       0.00001448      -0.00004081       0.00120389
Al       7.28740058       0.85475588       9.92573355        6       0.00010779       0.00000693       0.00092924
Al      10.15025943       0.85546169       9.90387623        6       0.00011916      -0.00001271       0.00118879
Al       2.99229530       3.33840302       9.89439262        6       0.00006590      -0.00006626       0.00130296
Al       5.85506084       3.33984477       9.90735270        6       0.00011099      -0.00005620       0.00110506
Al       8.71693714       3.33924473       9.89423418        6       0.00010086       0.00002035       0.00117148
Al      11.58124792       3.33850931       9.88487925        6       0.00015690      -0.00003365       0.00130897
Al       4.42073928       5.81945540       9.93024249        6       0.00010097      -0.00012212       0.00092270
Al       7.28460144       5.82045670       9.92103107        6       0.00016201      -0.00010621       0.00113176
Al      10.14771131       5.81875148       9.91929411        6       0.00014081       0.00002009       0.00117912
Al      13.01249010       5.81843917       9.92098376        6       0.00010049      -0.00007501       0.00116882
Al       5.85425872       8.29522297       9.92882175        6       0.00009955       0.00005411       0.00108292
Al       8.71958782       8.29628210       9.92822894        6       0.00012910      -0.00001975       0.00126196
Al      11.58272451       8.29514359       9.94685062        6       0.00004880      -0.00004163       0.00103236
Al      14.44419318       8.29518471       9.95296282        6       0.00012568      -0.00005362       0.00076274
Al       0.16092541       1.66367552      12.32040224        5       0.00081132      -0.00247302      -0.00107310
Al       3.02212737       1.66320548      12.32627452        5       0.00110959      -0.00235769      -0.00027299
Al       5.89065675       1.66085111      12.33678919        5      -0.00075937      -0.00078916       0.00270921
Al       8.75652882       1.66420911      12.32973038        5      -0.00129189      -0.00257606       0.00190182
Al       1.58845218       4.13693235      12.32968347        5       0.00092322       0.00177102      -0.00336584
Al       4.45601006       4.13775192      12.33035505        5      -0.00029870       0.00048970       0.00021008
Al       7.32550069       4.14002464      12.32675416        5      -0.00054621       0.00043977       0.00435143
Al      10.18464949       4.13592933      12.31870482        5       0.00071406       0.00225335       0.00488184
Al       3.02512939       6.62178155      12.35836971        5      -0.00180145      -0.00103537      -0.00643302
Al       5.89306200       6.62157392      12.34744584        5      -0.00014233       0.00123485      -0.00028264
Al       8.75566955       6.62445122      12.35727156        5       0.00142407       0.00001662      -0.00502835
Al      11.61460113       6.62179009      12.35780224        5       0.00057655      -0.00051105      -0.00158187
Al       4.46004593       9.10714508      12.35426885        5      -0.00063397      -0.00091516      -0.00140881
Al       7.32135428       9.10654628      12.34701893        5       0.00085849      -0.00062304      -0.00205171
Al      10.18654102       9.10315981      12.36394132        5      -0.00061765       0.00063872      -0.00099162
Al      13.05006987       9.10539913      12.36925517        5      -0.00013682      -0.00045508      -0.00095587
Al       0.16740574      -0.00656585      14.66203692        4      -0.00123223      -0.00114963      -0.00070206
Al       3.02700416      -0.00837256      14.66430058        4       0.00004694      -0.00000514       0.00138373
Al       5.89270467      -0.01409137      14.68375620        4      -0.00035359      -0.00033132       0.00160551
Al       8.75761245      -0.00527737      14.68125675        4      -0.00183231      -0.00229050      -0.00226553
Al       1.59287281       2.45804922      14.63553495        4      -0.00034140       0.00012309       0.00119968
Al       4.45544206       2.45397323      14.63861565        4      -0.00041064       0.00009480       0.00137259
Al       7.31982717       2.45751668      14.64081641        4       0.00092039       0.00024152       0.00263857
Al      10.19019923       2.46095641      14.63661074        4      -0.00088529       0.00002847       0.00070433
Al       3.01594411       4.93405888      14.64213286        4      -0.00028875       0.00047178       0.00129152
Al       5.88426965       4.94009577      14.64163630        4       0.00020893      -0.00054351      -0.00089794
Al       8.76085753       4.94565625      14.65020441        4      -0.00293036      -0.00490860      -0.00771516
Al      11.61161063       4.94443013      14.65116730        4       0.00023326      -0.00031314       0.00079255
Al       4.45245551       7.42618276      14.65884470        4       0.00003598       0.00039304       0.00126837
Al       7.33287497       7.43907713      14.66658125        4      -0.00808345      -0.00921760      -0.01488106
Al      10.20125205       7.43616003      14.69133602        4      -0.00064150      -0.00011917       0.00075533
Al      13.04160281       7.43095037      14.67104338        4      -0.00029385      -0.00077154       0.00291490
Al       1.55428734       0.74355746      17.01037908        3       0.00013704       0.00156182      -0.00464077
Al       4.41144665       0.72689145      17.01739402        3      -0.00088913      -0.00023518       0.00131438
Al       7.27784897       0.72091625      17.02762357        3       0.00042823       0.00213443       0.00025868
Al      10.16036781       0.74677187      17.00183241        3      -0.00068819      -0.00003596       0.00179685
Al       2.96888792       3.20608393      16.96030363        3       0.00006262       0.00029361       0.00156692
Al       5.83526953       3.19695100      16.95579113        3       0.00186160       0.00053904      -0.00138962
Al       8.73517548       3.21061657      16.97137067        3      -0.02677324      -0.01498002      -0.01575716
Al      11.57177279       3.20328698      16.97055135        3       0.00197235       0.00130994       0.00181304
Al       4.40104650       5.69686148      16.94906516        3       0.00005595       0.00035629       0.00086442
Al       7.28890003       5.70326412      16.93955371        3      -0.00316204      -0.00106835       0.00092404
Al      10.14828093       5.70573774      16.98712014        3       0.01748075       0.00258050       0.00007151
Al      12.99041197       5.70070615      16.98750029        3      -0.00029646       0.00005027       0.00095505
Al       5.85714855       8.20052345      16.96921287        3      -0.00208437      -0.00224887       0.00186091
Al       8.72519288       8.19196046      17.00260021        3       0.00678890       0.01113012       0.00544622
Al      11.57992567       8.18944170      17.09302477        3       0.00005580       0.00019102       0.00128306
Al      14.42168036       8.19448228      16.99623080        3       0.00064996      -0.00137009       0.00289205
Al       0.06825325       1.51510130      19.39450917        2       0.00232160       0.00219395      -0.00255937
Al       2.89845752       1.51000806      19.34980890        2       0.00172167      -0.00194453       0.00065311
Al       5.76821926       1.50962923      19.30815492        2       0.00161028      -0.00167440       0.00203223
Al       8.68130272       1.50387074      19.32234693        2      -0.00630744       0.00133454      -0.00049544
Al       1.48087899       3.96827633      19.28979901        2       0.00118762       0.00039009       0.00079375
Al       4.33513586       3.98860006      19.25209250        2      -0.00198603      -0.00059952      -0.00967652
Al       7.22437131       4.00080227      19.20615036        2       0.00509524       0.00046432       0.00394259
Al      10.12796038       3.99490606      19.26696054        2       0.00012091      -0.00012730      -0.00260302
Al       2.90454217       6.47138566      19.26798806        2      -0.00148235       0.00141548      -0.00326763
Al       5.78747935       6.48230228      19.21794443        2       0.00081296       0.00021767      -0.00393564
Al       8.68389908       6.49882774      19.22342637        2      -0.00429262       0.00109559       0.01452236
Al      11.52714564       6.45742606      19.40495617        2      -0.00243652      -0.00088054      -0.00526970
Al       4.38025591       8.96546097      19.28088925        2      -0.00180723       0.00184522       0.00824476
Al       7.23606531       8.99837110      19.30098661        2      -0.00042413      -0.00240475       0.00157298
Al      10.09355306       8.96214201      19.48047566        2      -0.00021168      -0.00028027       0.00052182
Al      12.97247580       8.97865138      19.48767044        2       0.00023934       0.00014153       0.00094704
Al      -0.08563427      -0.25171436      21.77441830        1      -0.00134697       0.01200231      -0.00373948
Al       2.65929599      -0.18326472      22.11607660        1       0.00073038      -0.00306233      -0.00549878
Al       5.63213343      -0.14017603      21.98115288        1      -0.00242836       0.00047125       0.00449341
Al       8.55195213      -0.17915520      22.05182888        1      -0.00118572      -0.00243118       0.00117517
Al       1.38814174       2.36704408      22.05769265        1       0.00070642       0.00108691       0.00206443
Al       4.25079552       2.34807005      21.63602433        1       0.00373376       0.00056926      -0.00157281
Al       7.10696050       2.35368197      21.58697022        1       0.00031033      -0.00143944       0.00263058
Al       9.93317346       2.32954762      21.72868246        1      -0.00166189      -0.00080962      -0.00010438
Al       2.81501129       4.79948181      21.57767377        1       0.00307577       0.00158876      -0.00160005
Al       5.67277390       4.80777879      21.51630531        1       0.00718119      -0.00106817       0.00476774
Al       8.47060543       4.80468737      21.56380640        1       0.00022771      -0.00283476      -0.00446591
Al      11.28753009       4.83183837      22.00458882        1       0.00532129       0.00505229      -0.00161194
Al       4.21281171       7.29244075      21.54677970        1       0.00455359      -0.00935328       0.00843272
Al       7.02278021       7.25549033      21.56521530        1       0.00194634       0.00207455      -0.00744093
Al       9.71618702       7.24055383      21.90702487        1       0.00270692      -0.00080418      -0.00075782
Al      12.78903458       7.24291065      21.80070203        1       0.00233199       0.00419001      -0.00238271
C        4.83634598       5.34024292      24.81257482        0      -0.00863326      -0.00788902       0.00135010
N        5.37407677       4.12016775      24.90213739        0      -0.00239147       0.00807844       0.00421876
C        6.71617401       4.37038699      25.00890002        0       0.00027884       0.00178791      -0.00039404
N        7.04702550       5.66809180      24.96599438        0      -0.00546968       0.01197477      -0.01026272
N        5.82485216       6.27675631      24.87123870        0      -0.00660768       0.00180911       0.00965880
H        3.78849963       5.58034048      24.64794153        0       0.01126306       0.00296653      -0.00840390
H        7.47423948       3.58750939      25.03998893        0      -0.00092963       0.01173933       0.00806533
H        5.74674000       7.22423761      24.50214651        0       0.01055044      -0.01336040      -0.00146934
