104
Lattice="11.45512985522207 0.0 0.0 5.727564927611035 9.92043345827187 0.0 0.0 0.0 31.691342951089922" Properties=species:S:1:pos:R:3:tags:I:1:forces:R:3 energy=-419.91485595703125 free_energy=-419.91485595703125 stress="0.011112152598798275 2.039596438407898e-07 2.100132405757904e-07 2.039596438407898e-07 0.011145826429128647 3.0891969799995422e-06 2.100132405757904e-07 3.0891969799995422e-06 0.011501885950565338" pbc="T T F"
Al       1.45711862       0.84926239       9.82983286        6       0.00209236       0.00004796       0.00180406
Al       4.32184926       0.84681989       9.85350209        6       0.00207932       0.00003682       0.00167179
Al       7.18304755       0.84843752       9.87606409        6       0.00209937      -0.00000712       0.00153264
Al      10.04520921       0.85073249       9.84579527        6       0.00211979       0.00002564       0.00170693
Al       2.88664152       3.33314772       9.85300440        6       0.00206125       0.00006249       0.00150924
Al       5.74921181       3.33083608       9.86191161        6       0.00209046       0.00003768       0.00146310
Al       8.61129953       3.33284074       9.85110416        6       0.00214118      -0.00002497       0.00154250
Al      11.47727048       3.33334030       9.84317646        6       0.00208126       0.00005634       0.00155170
Al       4.31411191       5.81246141       9.89962584        6       0.00205003       0.00011943       0.00135876
Al       7.17658074       5.81076168       9.87953019        6       0.00216309       0.00007766       0.00149541
Al      10.04217883       5.81071019       9.88422065        6       0.00213387       0.00012111       0.00150331
Al      12.90630584       5.81351092       9.89508741        6       0.00208390       0.00009313       0.00150234
Al       5.74760149       8.29088267       9.87410940        6       0.00213373       0.00004025       0.00161908
Al       8.61477936       8.28693537       9.86669269        6       0.00210701       0.00006849       0.00176866
Al      11.47848234       8.28792896       9.90613034        6       0.00206426       0.00006320       0.00155966
Al      14.33967546       8.29050338       9.91069758        6       0.00202856       0.00008966       0.00144717
Al       0.07981204       1.66129968      12.28558451        5       0.00145066      -0.00009763       0.00238763
Al       2.93752471       1.65760451      12.29205933        5       0.00289282       0.00143683       0.00034947
Al       5.80519303       1.65789765      12.31499947        5       0.00061305       0.00043552      -0.00705650
Al       8.67602381       1.66034636      12.30760400        5       0.00057314      -0.00016527      -0.00097644
Al       1.50855115       4.13925684      12.30924759        5       0.00252218       0.00265246      -0.00392176
Al       4.37051631       4.13839696      12.31520992        5      -0.00044163       0.00125170      -0.01322388
Al       7.23986058       4.13760177      12.31297783        5       0.00340428       0.00218206      -0.01802847
Al      10.10973624       4.14144497      12.30318390        5       0.00034254       0.00110007      -0.00375204
Al       2.94011979       6.63235532      12.35553374        5       0.00022717      -0.00223121      -0.01435040
Al       5.80715449       6.63065490      12.33507211        5       0.00021152       0.00166005      -0.02359126
Al       8.67594537       6.63226052      12.33450634        5       0.00088520      -0.00037142      -0.01899766
Al      11.53519633       6.63432808      12.35826160        5       0.00289598      -0.00388049      -0.01960065
Al       4.37547368       9.10852869      12.33342912        5       0.00075603       0.00054944      -0.00529981
Al       7.24013240       9.11163941      12.31499691        5       0.00060034      -0.00108892      -0.00559439
Al      10.10292796       9.10867187      12.34514999        5       0.00020242       0.00032156      -0.01500999
Al      12.96239538       9.10953749      12.36232916        5       0.00355923      -0.00070401      -0.01359891
Al       0.09014575       0.00116401      14.65101291        4      -0.00661791       0.00066149      -0.00976012
Al       2.95031362      -0.00080909      14.65625036        4       0.00183747      -0.00006290       0.00007764
Al       5.81259779      -0.00572599      14.68846672        4       0.00114519       0.00085002      -0.00314298
Al       8.67950803      -0.00561956      14.67681372        4       0.00247045       0.00109291       0.00071925
Al       1.51599890       2.46852044      14.63054994        4       0.00050755      -0.00243453      -0.02028522
Al       4.37282373       2.46163222      14.62559016        4       0.00357548       0.00067055      -0.00083610
Al       7.24574083       2.45852900      14.62349787        4       0.00152340       0.00065162       0.00069799
Al      10.12254380       2.47415978      14.62921246        4      -0.00631517      -0.01488968      -0.01491249
Al       2.93535271       4.95532663      14.64065057        4       0.00498984       0.00107596       0.00006769
Al       5.81003472       4.95541523      14.60088967        4       0.00299552      -0.00268570       0.01446661
Al       8.69197438       4.95594164      14.61223834        4      -0.00068840       0.00104190       0.00424155
Al      11.54575342       4.95779853      14.64427874        4       0.00192776       0.00045080       0.00109940
Al       4.37820325       7.44712578      14.67332887        4       0.00135820      -0.00004312      -0.00613807
Al       7.25020325       7.44842143      14.64123329        4       0.00211275      -0.00015107       0.00054351
Al      10.12373286       7.45180176      14.68088975        4      -0.00173737      -0.00226300      -0.00613061
Al      12.97420949       7.45162734      14.70254572        4       0.00273705      -0.00255419      -0.00592964
Al       1.49616633       0.78445780      16.97622652        3       0.02378259       0.00631375       0.03217788
Al       4.36628253       0.78272468      17.01889683        3      -0.01575028      -0.01036589       0.00288566
Al       7.21997932       0.76062710      17.02961394        3       0.00708563       0.00597650       0.00059609
Al      10.08429508       0.77959330      17.02916221        3       0.01834819      -0.00412003      -0.02032249
Al       2.94448207       3.24912069      16.93261148        3      -0.04286170       0.00888341       0.03950754
Al       5.79232704       3.25671808      16.94463569        3       0.01150914      -0.00677737      -0.01372254
Al       8.66901745       3.24520649      16.90940066        3      -0.00004919       0.00611256       0.02758570
Al      11.54195135       3.25030122      16.96061906        3       0.00339276       0.00074277      -0.00030587
Al       4.38252069       5.75672234      16.94985247        3      -0.04468852       0.00228431       0.00133754
Al       7.23871214       5.75596229      16.93257614        3       0.00237558      -0.00431724      -0.00973244
Al      10.11035834       5.77781070      16.97107518        3       0.01759237      -0.01597939      -0.01568040
Al      12.96502760       5.77445901      16.99969774        3       0.00329528      -0.03836327       0.01352230
Al       5.81822885       8.25657866      16.97249994        3      -0.01910136       0.00256015       0.02863984
Al       8.67999507       8.23395494      16.99253531        3      -0.00130048       0.04483820       0.01895182
Al      11.55346557       8.24879687      17.07551620        3      -0.00733467      -0.00600345       0.01484044
Al      14.39092888       8.24851512      17.05857839        3       0.00439915      -0.00179159       0.00446641
Al       0.05238754       1.55348204      19.35989073        2       0.02288465       0.02610052       0.03592090
Al       2.85745040       1.56660327      19.36438677        2       0.01013462      -0.00055137       0.01625553
Al       5.76434881       1.57849609      19.31654627        2      -0.01525590      -0.00198422       0.03062324
Al       8.62611500       1.57113361      19.32284224        2      -0.00017306       0.00047833      -0.00246093
Al       1.48065679       4.05845454      19.28031298        2       0.00267254      -0.00779102       0.07263475
Al       4.31060692       4.04643963      19.21814744        2      -0.00513934       0.00054325       0.00207337
Al       7.22820378       4.05629864      19.20368904        2       0.00777831       0.00629676       0.00602765
Al      10.10621365       4.06963261      19.17624648        2      -0.03308750      -0.01033917       0.11133076
Al       2.89291218       6.55718594      19.35535677        2       0.00820727      -0.00568013      -0.01734436
Al       5.76846077       6.58296371      19.22464720        2      -0.00019568      -0.00286852      -0.00466377
Al       8.64291111       6.55992913      19.23858442        2       0.00154892      -0.01001813       0.06087437
Al      11.52871625       6.55461064      19.40363286        2      -0.00711529       0.01568846      -0.00691026
Al       4.34834686       9.03171714      19.42123113        2       0.00499870       0.00601742       0.01342347
Al       7.22116318       9.06007643      19.36294611        2       0.00202357       0.00690426       0.00484676
Al      10.08836274       9.02620657      19.42068827        2      -0.01235339       0.00337152       0.02481279
Al      12.95392858       9.03139610      19.59631192        2      -0.02209818      -0.01520681      -0.02040296
Al      -0.18408922      -0.25556293      22.10478221        1       0.01883233       0.10636021      -0.07502449
Al       2.72018526      -0.10038881      22.14246338        1      -0.00002012       0.00180706      -0.04321158
Al       5.50715544      -0.05105938      21.96816361        1       0.03195200      -0.01456347      -0.06019955
Al       8.42371887      -0.03558221      22.05819231        1       0.00849097      -0.00340804      -0.01730117
Al       1.42569492       2.52528015      22.18097319        1      -0.00258296      -0.02439762      -0.06869788
Al       4.25029593       2.44175394      21.59462633        1       0.01100972       0.01080155       0.01106299
Al       7.11094968       2.44880828      21.64347159        1      -0.02153535      -0.01719084      -0.02584641
Al      10.00146368       2.38060293      21.57197828        1       0.01977775       0.00016505       0.05038655
Al       2.86823140       4.89440207      21.66352351        1      -0.02975830      -0.01407768      -0.04925603
Al       5.72283769       4.89091016      21.40431194        1      -0.02568184      -0.00303908       0.10124653
Al       8.49157569       4.82412033      21.62544956        1       0.01724204      -0.00055152      -0.06336326
Al      11.34780057       4.88372603      21.66076553        1       0.00281132       0.00279473       0.00502619
Al       4.18266509       7.32381622      21.69886182        1       0.01566636      -0.01605284       0.00285287
Al       7.04464654       7.38693711      21.56386549        1       0.00886697      -0.05690297       0.00002184
Al       9.76590390       7.23480371      21.78143305        1       0.09691310       0.08067390      -0.03027887
Al      12.80688435       7.31406533      22.15841238        1      -0.01274425      -0.00826298      -0.06195114
C        5.50301816       4.70294270      24.75408156        0       0.17114329      -0.13417371       0.06871342
N        6.24676847       3.64874308      25.13208879        0       0.14640079       0.48068774      -0.02395494
C        7.49010245       4.20403640      25.34607223        0      -0.33697885       0.26192957      -0.18405190
N        7.56956932       5.52290329      25.07249535        0      -0.37709332      -0.24479309      -0.03857816
N        6.27591950       5.83167438      24.73533567        0       0.06363785      -0.37984684       0.14823537
H        4.45580156       4.68669494      24.43742329        0       0.19608013       0.00531699       0.05531285
H        8.37139445       3.64688953      25.66756052        0      -0.09370454       0.00320055      -0.03054209
H        6.02391312       6.69107005      24.24179209        0       0.09970314      -0.02279220       0.05805880
