104
Lattice="11.45512985522207 0.0 0.0 5.727564927611035 9.92043345827187 0.0 0.0 0.0 31.691342951089922" Properties=species:S:1:pos:R:3:tags:I:1:forces:R:3 energy=-419.6656188964844 free_energy=-419.6656188964844 stress="0.007506224792450666 6.877817213535309e-07 -5.587935447692871e-08 6.877817213535309e-07 0.007555908989161253 1.5366822481155396e-06 -5.587935447692871e-08 1.5366822481155396e-06 0.007707042619585991" pbc="T T F"
Al       1.62528898       0.85284392       9.93862802        6       0.00009216      -0.00077944      -0.00070034
Al       4.49038294       0.85174112       9.95431670        6       0.00009383      -0.00065419      -0.00054578
Al       7.35072458       0.85096103       9.95661246        6       0.00000026      -0.00067558      -0.00072827
Al      10.21373105       0.85218550       9.94326296        6       0.00001554      -0.00084208      -0.00097800
Al       3.05502118       3.33384041       9.92936952        6       0.00017682      -0.00084282      -0.00079024
Al       5.92015082       3.33427447       9.93960681        6      -0.00003652      -0.00070379      -0.00068510
Al       8.78224782       3.33406051       9.92931513        6      -0.00012909      -0.00078197      -0.00097288
Al      11.64589589       3.33405479       9.92164607        6      -0.00001927      -0.00078920      -0.00096936
Al       4.48447945       5.81505601       9.94986439        6       0.00007643      -0.00074869      -0.00072481
Al       7.35065006       5.81705744       9.94992929        6      -0.00004569      -0.00081924      -0.00087092
Al      10.21413759       5.81611657       9.94959619        6      -0.00007244      -0.00067700      -0.00088762
Al      13.07588077       5.81510377       9.94815376        6       0.00010088      -0.00073457      -0.00077295
Al       5.91878129       8.29426353       9.96109214        6      -0.00003939      -0.00094102      -0.00138775
Al       8.78510030       8.29586656       9.96909629        6       0.00002478      -0.00091635      -0.00107389
Al      11.64650685       8.29375394       9.97716076        6       0.00002940      -0.00084007      -0.00087633
Al      14.50601269       8.29303615       9.97417950        6       0.00000846      -0.00093085      -0.00118358
Al       0.20407340       1.64031097      12.33353347        5      -0.00025430      -0.00326767       0.00451892
Al       3.06710459       1.63906746      12.34484579        5      -0.00000078      -0.00306837       0.00277545
Al       5.92992607       1.63641982      12.35826615        5      -0.00014235      -0.00149664       0.00373808
Al       8.79177651       1.64072145      12.33976593        5      -0.00047625      -0.00319876       0.00568723
Al       1.63337871       4.11095353      12.33041125        5      -0.00020406       0.00126675       0.00096278
Al       4.49691247       4.11273580      12.33741105        5      -0.00003805      -0.00047152       0.00255117
Al       7.36256210       4.11449230      12.33584410        5       0.00022870      -0.00032514       0.00508674
Al      10.22639243       4.11090284      12.32322347        5      -0.00065132       0.00107875       0.00543765
Al       3.06159400       6.59650789      12.36122887        5      -0.00074743      -0.00057347      -0.00163122
Al       5.93023459       6.59528227      12.35022241        5       0.00103060       0.00065057       0.00167820
Al       8.80126702       6.59683554      12.35863169        5      -0.00038353      -0.00014906       0.00054355
Al      11.65994263       6.59797103      12.36912739        5      -0.00037116      -0.00013251      -0.00150967
Al       4.49575824       9.08106802      12.34935507        5       0.00046641      -0.00096930       0.00487651
Al       7.36705266       9.08163309      12.35257582        5      -0.00052771      -0.00152206       0.00309595
Al      10.23209023       9.08041074      12.37901917        5      -0.00126127      -0.00102162       0.00051743
Al      13.08465617       9.07890598      12.38058477        5       0.00091981      -0.00083202       0.00016652
Al       0.18398322      -0.05098395      14.64541806        4       0.00050833      -0.00006883       0.00072216
Al       3.05317900      -0.05329343      14.66913537        4      -0.00001181      -0.00016505       0.00057636
Al       5.91661340      -0.05493652      14.70956187        4      -0.00031038      -0.00059494      -0.00066902
Al       8.78056727      -0.04548905      14.66588852        4      -0.00011914      -0.00071747       0.00118356
Al       1.61897853       2.43138642      14.64567997        4      -0.00069488      -0.00194446      -0.00061256
Al       4.47598638       2.41875121      14.65665215        4       0.00013553      -0.00059993      -0.00001587
Al       7.35153006       2.42647945      14.65928792        4      -0.00027464      -0.00122669      -0.00030788
Al      10.20826664       2.42456894      14.64088506        4       0.00018316      -0.00059974       0.00008262
Al       3.03888412       4.90027308      14.63301204        4      -0.00009883      -0.00062926       0.00066654
Al       5.91501274       4.90608440      14.63494932        4      -0.00037038      -0.00127383      -0.00038935
Al       8.78454660       4.90882029      14.64504957        4      -0.00010479      -0.00161131      -0.00068411
Al      11.63086095       4.89919593      14.62178157        4       0.00197699       0.00116200       0.00644480
Al       4.47925115       7.39519900      14.64512175        4      -0.00017496      -0.00110528       0.00030716
Al       7.36169024       7.39710358      14.65300555        4      -0.00164563      -0.00135183      -0.00036669
Al      10.21066914       7.39531814      14.68804452        4       0.00334093      -0.00131374       0.00076347
Al      13.06642938       7.39537449      14.69175760        4      -0.00134568      -0.00287325      -0.00221077
Al       1.55968729       0.72131648      16.98965321        3       0.00245678      -0.00222700      -0.00082130
Al       4.42446061       0.68759236      17.02977022        3       0.00043623      -0.00077802       0.00054886
Al       7.30036604       0.69459036      17.02790596        3       0.00041193       0.00060552       0.00090843
Al      10.16903107       0.72100467      17.00505817        3      -0.00559457      -0.00477224      -0.00916806
Al       2.98731461       3.16873541      16.98261647        3      -0.00008269      -0.00028966      -0.00042877
Al       5.86333149       3.15946053      16.95059174        3       0.00061219       0.00103262       0.00469129
Al       8.74985273       3.17628609      16.97937441        3      -0.00570637      -0.00346383       0.00006745
Al      11.58696920       3.18651259      16.96110571        3       0.00166240       0.00099744       0.00403965
Al       4.41578426       5.65248449      16.92584494        3       0.00023011      -0.00024655       0.00060522
Al       7.30789507       5.66474947      16.93943637        3      -0.00043913      -0.00076747       0.00036427
Al      10.15675159       5.66228404      16.99218857        3       0.00600404       0.00101488      -0.00236851
Al      13.00068173       5.65773571      16.97942441        3      -0.00040451      -0.00154169      -0.00171561
Al       5.87416961       8.15751260      16.94771030        3      -0.00001960      -0.00039494       0.00043194
Al       8.75154396       8.15936100      17.00773490        3       0.00049253       0.00295017       0.00295382
Al      11.59376556       8.15080305      17.08374250        3       0.00000350      -0.00042423       0.00028536
Al      14.44440772       8.15807644      16.99499150        3       0.00009119      -0.00074281      -0.00065879
Al       0.08484744       1.53443419      19.33581142        2      -0.00020250      -0.00277394      -0.00266909
Al       2.94717504       1.46436468      19.32681116        2      -0.00266449       0.00062904      -0.00160711
Al       5.79516166       1.46626974      19.33324382        2       0.00068959      -0.00129888      -0.00611289
Al       8.68478100       1.48296021      19.37145745        2      -0.00156036      -0.00322869      -0.00377935
Al       1.49156675       3.93608940      19.32890665        2      -0.00100985      -0.00155369      -0.00765884
Al       4.36665213       3.95860684      19.24892382        2      -0.00550223      -0.00154550      -0.00772718
Al       7.23958899       3.96730226      19.22270714        2       0.00343804      -0.00040362      -0.00514514
Al      10.13109863       3.94137841      19.30719347        2       0.00092906       0.00031720      -0.00813997
Al       2.91874746       6.44487983      19.24324725        2      -0.00039874      -0.00111199      -0.00378783
Al       5.79943677       6.44164357      19.19089006        2       0.00117795       0.00297204      -0.00281504
Al       8.68900236       6.47415055      19.24498410        2       0.00066906      -0.00444226      -0.00221172
Al      11.51719179       6.40493349      19.35122095        2       0.00167555       0.00290217       0.00312941
Al       4.39108841       8.94450162      19.25298782        2      -0.00030192      -0.00016650       0.00182202
Al       7.24340835       8.97318044      19.26360302        2       0.00123839      -0.00012588      -0.00335934
Al      10.12152515       8.90903584      19.56173975        2       0.00081283       0.00212340      -0.00652881
Al      12.98374706       8.95530746      19.43327938        2       0.00479639       0.00407684      -0.00462721
Al      -0.09023543      -0.07977211      21.59711973        1      -0.00269002      -0.01016387       0.00722259
Al       2.61005682      -0.23425169      22.04313529        1       0.00037764       0.00145830      -0.00332638
Al       5.64395877      -0.18932507      22.16439413        1      -0.00039113       0.00398938      -0.00507141
Al       8.56986115      -0.34915725      22.12476249        1      -0.00077672       0.00561816      -0.00888562
Al       1.41644429       2.32746935      22.10776946        1       0.00387211       0.00585651      -0.00767408
Al       4.26779972       2.31216280      21.63663073        1      -0.00406473      -0.00002743      -0.00335198
Al       7.09120486       2.26247031      21.62938474        1       0.01322192       0.00848653       0.00710189
Al       9.86930091       2.27069223      21.86303412        1       0.00340857       0.00493118       0.00025869
Al       2.85183557       4.78675549      21.55029772        1       0.00261478       0.00280152       0.00193274
Al       5.72278276       4.76803678      21.51552745        1       0.00091050      -0.00215169       0.00096984
Al       8.52422144       4.75497017      21.56299538        1       0.00804028       0.00213007      -0.00221347
Al      11.43764068       4.88605678      22.13819081        1      -0.00022478      -0.00114531      -0.00539334
Al       4.29376532       7.24031561      21.49830621        1      -0.00334704       0.00393363      -0.00935531
Al       7.04762018       7.25735834      21.52046907        1       0.00417492      -0.00481842       0.00133556
Al       9.76947182       7.22026864      21.94159844        1       0.00096416       0.00002005      -0.00451487
Al      12.80864199       7.27487949      21.63786270        1       0.00071545      -0.00362567       0.00987576
C        4.47534860       5.74844713      24.73471976        0       0.03674198       0.02322261       0.01628087
N        4.89957732       4.48345785      24.79455185        0      -0.01489107      -0.00590775       0.01009836
C        6.25987174       4.60447392      24.89933236        0      -0.07682329       0.21111800      -0.00702218
N        6.70879431       5.86900552      24.87844717        0      -0.05816616      -0.03466192      -0.00216907
N        5.54547985       6.58701787      24.80576926        0       0.03508558      -0.12950185       0.06052549
H        3.45911314       6.10141904      24.57909670        0      -0.01773475      -0.03351024      -0.00231139
H        6.94196053       3.75962975      24.91703110        0       0.07015690      -0.09356945       0.01801820
H        5.56234695       7.54156807      24.45956787        0      -0.00397559       0.09981933      -0.04069067
