104
Lattice="11.45512985522207 0.0 0.0 5.727564927611035 9.92043345827187 0.0 0.0 0.0 31.691342951089922" Properties=species:S:1:pos:R:3:tags:I:1:forces:R:3 energy=-420.0660400390625 free_energy=-420.0660400390625 stress="0.009006388485431671 -1.434236764907837e-07 3.166496753692627e-08 -1.434236764907837e-07 0.009055335074663162 2.302229404449463e-06 3.166496753692627e-08 2.302229404449463e-06 0.009293046779930592" pbc="T T F"
Al       1.52731514       0.85476026       9.87513365        6       0.00041331      -0.00018558       0.00153393
Al       4.39218757       0.85577914       9.89629274        6       0.00041860      -0.00026671       0.00131872
Al       7.25217197       0.85551959       9.91225560        6       0.00043570      -0.00026074       0.00112485
Al      10.11505645       0.85451102       9.88664190        6       0.00045050      -0.00011984       0.00146843
Al       2.95751052       3.33925188       9.88173431        6       0.00040272      -0.00025474       0.00137357
Al       5.81817876       3.34082435       9.89367763        6       0.00056009      -0.00032026       0.00131490
Al       8.68049680       3.34058653       9.88010245        6       0.00049723      -0.00026395       0.00151267
Al      11.54579016       3.33997467       9.87141128        6       0.00046809      -0.00028366       0.00148403
Al       4.38407583       5.81736702       9.91925806        6       0.00054254      -0.00009290       0.00122520
Al       7.24762299       5.81786263       9.90634307        6       0.00053848      -0.00010073       0.00142817
Al      10.11144006       5.81821387       9.90623326        6       0.00051903      -0.00019322       0.00139517
Al      12.97684155       5.81750215       9.91059278        6       0.00046600      -0.00014053       0.00127888
Al       5.81761139       8.29365109       9.91177425        6       0.00051944      -0.00005057       0.00140726
Al       8.68385250       8.29328484       9.90959197        6       0.00047744      -0.00003604       0.00142854
Al      11.54626195       8.29148735       9.93393433        6       0.00053483       0.00005288       0.00110683
Al      14.40999901       8.29248648       9.93966704        6       0.00040399       0.00003250       0.00115786
Al       0.14185503       1.66922047      12.30805340        5      -0.00066313       0.00017328      -0.00063569
Al       3.00454785       1.67049613      12.31547554        5      -0.00087223      -0.00036606      -0.00192785
Al       5.86698483       1.66992349      12.32772059        5       0.00038935      -0.00035502       0.00080549
Al       8.72893173       1.66733441      12.32030153        5       0.00112436       0.00084122       0.00046544
Al       1.57302525       4.15055891      12.31107320        5      -0.00095443      -0.00131527       0.00269466
Al       4.43809084       4.15263267      12.32449535        5      -0.00098402      -0.00168938      -0.00075259
Al       7.30160374       4.15365389      12.32239625        5       0.00054098      -0.00150186       0.00058553
Al      10.16323467       4.15208499      12.31273270        5       0.00073867      -0.00193458       0.00214194
Al       3.00332416       6.63475428      12.35372003        5      -0.00014164      -0.00127003      -0.00059184
Al       5.86983565       6.63920157      12.33980916        5      -0.00003779      -0.00175466       0.00254489
Al       8.73598520       6.63785655      12.34445427        5      -0.00041044      -0.00148054      -0.00012312
Al      11.59778544       6.63621155      12.34751459        5      -0.00080239      -0.00179786       0.00289960
Al       4.43505184       9.11664953      12.34839242        5       0.00028187      -0.00098346      -0.00069199
Al       7.30063910       9.11618297      12.33468655        5      -0.00058398      -0.00109831      -0.00221057
Al      10.16450891       9.11474815      12.34600156        5      -0.00004919      -0.00100552       0.00250302
Al      13.02718187       9.11372275      12.36050076        5      -0.00026540      -0.00054269       0.00261309
Al       0.14884839      -0.00098258      14.65380071        4      -0.00015010      -0.00030677       0.00116979
Al       3.00931636      -0.00054225      14.64741232        4      -0.00016270      -0.00069771       0.00167115
Al       5.86885956      -0.00196871      14.67504377        4       0.00048661      -0.00036166       0.00146051
Al       8.73576564      -0.00564721      14.67992235        4      -0.00000794       0.00006190       0.00078260
Al       1.57597628       2.46808971      14.62602629        4      -0.00023399      -0.00020753       0.00096854
Al       4.43471259       2.46383764      14.63037816        4       0.00031634       0.00018830       0.00131883
Al       7.30565083       2.46941616      14.63302605        4       0.00009283      -0.00042329       0.00116962
Al      10.17174497       2.45911675      14.61861884        4      -0.00000865       0.00042143       0.00160519
Al       2.99686070       4.94457424      14.63629634        4       0.00043112       0.00038670       0.00093215
Al       5.87439043       4.95831685      14.63627213        4      -0.00159346      -0.00193808      -0.00185019
Al       8.74836372       4.95557438      14.63976807        4      -0.00066496      -0.00055342      -0.00013937
Al      11.59898528       4.95185446      14.63373282        4       0.00033535       0.00006976       0.00145524
Al       4.43625241       7.44578192      14.66831411        4       0.00022568      -0.00046071       0.00058901
Al       7.30841404       7.44976128      14.65862332        4       0.00031172      -0.00043988       0.00100489
Al      10.18168064       7.44656666      14.67935357        4      -0.00005456      -0.00005344       0.00121987
Al      13.02854212       7.44303063      14.68444951        4      -0.00017749      -0.00024748       0.00084066
Al       1.53823827       0.75135287      16.99425187        3       0.00041834       0.00024506       0.00153879
Al       4.38746432       0.73174312      17.00267033        3       0.00084290       0.00129992       0.00173184
Al       7.26240488       0.73555291      17.02466244        3       0.00035547      -0.00056028      -0.00034284
Al      10.14310271       0.75201828      17.00892675        3       0.00022318      -0.00034575       0.00154341
Al       2.96253547       3.21527532      16.95414464        3      -0.00025754      -0.00020514       0.00135291
Al       5.82663623       3.21197788      16.93850979        3       0.00060191       0.00010013       0.00122129
Al       8.71494517       3.21347917      16.94751235        3      -0.00181369      -0.00070122      -0.00231176
Al      11.56184594       3.22126890      16.95048238        3       0.00201109       0.00008985       0.00164956
Al       4.38759302       5.71390487      16.94105180        3       0.00062777       0.00032499       0.00126791
Al       7.28060828       5.72138807      16.94396305        3      -0.00015111      -0.00002746      -0.00083817
Al      10.15077950       5.72536503      16.97509549        3       0.00086489       0.00112533       0.00065236
Al      12.99684086       5.71953423      16.97660305        3      -0.00553111      -0.00191088       0.00279807
Al       5.84202689       8.21148819      17.00089130        3      -0.00102218       0.00120456      -0.00448773
Al       8.71315914       8.21445068      17.00504092        3       0.00033326       0.00011209       0.00149308
Al      11.57218757       8.20573300      17.07545869        3       0.00040526       0.00026026       0.00157369
Al      14.41846303       8.20454201      17.02444288        3       0.00110066       0.00256954       0.00308436
Al       0.08588949       1.54092346      19.36547401        2      -0.00383410      -0.00204649      -0.00108469
Al       2.89796538       1.52794732      19.35702606        2      -0.00401845      -0.00290754      -0.00558818
Al       5.75301673       1.52598772      19.29250860        2       0.00193630       0.00024185       0.00124831
Al       8.66254591       1.52526923      19.31059714        2       0.00081271      -0.00122736      -0.00379955
Al       1.48198650       4.00615719      19.26811343        2      -0.00123918      -0.00162599      -0.00320338
Al       4.32997628       4.01138962      19.22793879        2      -0.00009998       0.00004800      -0.00562781
Al       7.23435449       4.01113224      19.18967644        2      -0.00348917       0.00179066       0.00307659
Al      10.11665352       4.02284186      19.22438600        2       0.00218921      -0.00065788       0.00050269
Al       2.90440158       6.51083307      19.28600254        2       0.00126817      -0.00235735      -0.00008741
Al       5.77725829       6.49825180      19.20266134        2       0.00043939       0.00018674       0.00357276
Al       8.67285039       6.51232036      19.25445105        2       0.00062557       0.00098846      -0.00902261
Al      11.52646674       6.48411759      19.37739447        2       0.00083083       0.00035756       0.00064975
Al       4.37235110       8.98626160      19.37008518        2      -0.00041148       0.00042054      -0.00445009
Al       7.23166679       9.00741458      19.34306569        2      -0.00056717       0.00183445      -0.00646561
Al      10.07277026       8.97441242      19.44412662        2       0.00105546       0.00059743      -0.00058165
Al      12.94915803       8.98920970      19.50658808        2       0.00068337       0.00009443       0.00070573
Al      -0.10698335      -0.26175541      21.90913492        1      -0.00117911      -0.00320946      -0.00361142
Al       2.68496389      -0.20290158      22.13068451        1       0.00188696       0.00267850      -0.00037476
Al       5.59244774      -0.09440184      21.89319088        1      -0.00137970      -0.00092581       0.00549796
Al       8.53265470      -0.09418984      22.03960566        1      -0.00066261      -0.00387166      -0.00049171
Al       1.38947637       2.41794438      22.01056067        1       0.00293653      -0.00040798       0.00445497
Al       4.26612404       2.40935955      21.63448849        1      -0.00147015      -0.00305224      -0.00177874
Al       7.11641360       2.36456431      21.58279853        1      -0.00227981       0.00309263       0.00230757
Al       9.99432586       2.32983171      21.66961027        1      -0.00168681       0.00351015      -0.00359208
Al       2.78744070       4.84283998      21.58074969        1       0.00156335      -0.00228607      -0.00138637
Al       5.68227561       4.81694952      21.50021619        1       0.00121063       0.00153547      -0.00017375
Al       8.44504778       4.79129100      21.56941716        1       0.00390728       0.00375453      -0.00060699
Al      11.23088785       4.87467153      21.89605659        1       0.00467234      -0.00059684       0.00038413
Al       4.21310842       7.25977478      21.66519065        1      -0.00006607       0.00379482      -0.00538635
Al       7.00855038       7.26605137      21.55642985        1       0.00318505       0.00158414      -0.00084938
Al       9.70795247       7.24950846      21.88126629        1       0.00050375      -0.00179949      -0.00122925
Al      12.79397879       7.27645026      21.90006614        1       0.00093062      -0.00277990      -0.00192370
C        5.02703170       5.13528272      24.87870128        0      -0.02617243       0.00727866      -0.00407842
N        5.62446315       3.95241728      25.04188891        0      -0.00105397      -0.01366989      -0.00442667
C        6.95069856       4.27637287      25.13308673        0       0.01210811      -0.00759280       0.00197060
N        7.21487609       5.58632150      25.02551479        0       0.00962711       0.01043762      -0.00546185
N        5.96502611       6.12463164      24.90096277        0      -0.00641862       0.02122024       0.00111203
H        3.97376458       5.31334553      24.67901511        0      -0.00291517       0.00386655      -0.00576881
H        7.74990382       3.54030356      25.20925788        0       0.00941376      -0.00726774       0.00377799
H        5.84808762       7.05058460      24.49049006        0      -0.00595329       0.00850938      -0.00621582
