104
Lattice="11.45512985522207 0.0 0.0 5.727564927611035 9.92043345827187 0.0 0.0 0.0 31.691342951089922" Properties=species:S:1:pos:R:3:tags:I:1:forces:R:3 energy=-419.66815185546875 free_energy=-419.66815185546875 stress="0.006723263766616583 5.173496901988983e-07 -1.2852251529693604e-07 5.173496901988983e-07 0.006779402960091829 1.7383135855197906e-06 -1.2852251529693604e-07 1.7383135855197906e-06 0.006950548849999905" pbc="T T F"
Al       1.62593966       0.85159125       9.95109438        6      -0.00000995      -0.00065710      -0.00055247
Al       4.49092156       0.85108528       9.96599440        6       0.00004662      -0.00049969      -0.00031077
Al       7.35121186       0.85016442       9.96655939        6      -0.00008791      -0.00051720      -0.00035368
Al      10.21434620       0.85047204       9.95418789        6      -0.00007755      -0.00064674      -0.00067377
Al       3.05596814       3.33256386       9.94025981        6       0.00009186      -0.00069458      -0.00058247
Al       5.92043848       3.33335394       9.94980599        6      -0.00007136      -0.00055890      -0.00027651
Al       8.78266243       3.33291891       9.93967122        6      -0.00021170      -0.00055074      -0.00055007
Al      11.64647614       3.33303594       9.93262884        6      -0.00015767      -0.00064573      -0.00074323
Al       4.48494665       5.81312413       9.95704793        6       0.00009383      -0.00048456      -0.00010207
Al       7.35125634       5.81510506       9.95787679        6      -0.00006939      -0.00053293      -0.00025126
Al      10.21491515       5.81504253       9.95798764        6      -0.00016240      -0.00048635      -0.00038288
Al      13.07665981       5.81353293       9.95640932        6       0.00000652      -0.00048631      -0.00036563
Al       5.91916302       8.29238550       9.96892474        6      -0.00010390      -0.00069268      -0.00086606
Al       8.78582163       8.29412487       9.97864998        6      -0.00007572      -0.00065941      -0.00076557
Al      11.64680935       8.29173994       9.98527445        6      -0.00002251      -0.00052656      -0.00047101
Al      14.50673699       8.29090167       9.98040896        6      -0.00000265      -0.00055641      -0.00062924
Al       0.20325081       1.63453120      12.33233608        5      -0.00053107      -0.00063906       0.00576307
Al       3.06643217       1.63362226      12.34380701        5       0.00029551      -0.00076967       0.00529267
Al       5.93032578       1.63370366      12.35905052        5      -0.00061827      -0.00116547       0.00439605
Al       8.78938461       1.63557801      12.33995707        5       0.00038622      -0.00139569       0.00710508
Al       1.63281791       4.11142941      12.32543050        5      -0.00036125      -0.00007244       0.00512962
Al       4.49793608       4.11236541      12.33747067        5      -0.00079188      -0.00098618       0.00370875
Al       7.36247292       4.11407507      12.33871579        5       0.00030643      -0.00074161       0.00474871
Al      10.22420854       4.11102923      12.32427685        5      -0.00020801       0.00019978       0.00653764
Al       3.06212127       6.59718287      12.36020109        5      -0.00065665      -0.00158656       0.00089839
Al       5.93113237       6.59585373      12.35289311        5       0.00027192      -0.00005750       0.00220341
Al       8.79889063       6.59618159      12.36102404        5       0.00041629      -0.00043734       0.00188817
Al      11.65971321       6.59780499      12.36865138        5      -0.00104022      -0.00094039      -0.00016063
Al       4.49427182       9.07892573      12.35175264        5       0.00049101      -0.00141447       0.00529671
Al       7.36509665       9.07848235      12.35321793        5      -0.00026853      -0.00179215       0.00418905
Al      10.23109554       9.07686761      12.37606093        5      -0.00075805      -0.00068821       0.00379782
Al      13.08481257       9.07590487      12.37949673        5       0.00043131      -0.00050390       0.00281454
Al       0.18435938      -0.05367861      14.64171336        4       0.00048277       0.00009201       0.00234455
Al       3.05172087      -0.05716597      14.66306454        4       0.00009387       0.00011902       0.00184928
Al       5.91304261      -0.05809867      14.70435326        4      -0.00000812      -0.00030136       0.00045258
Al       8.77892825      -0.05184247      14.66570532        4      -0.00014984      -0.00036538       0.00165403
Al       1.61619271       2.42526414      14.63924417        4      -0.00006555      -0.00077672       0.00087217
Al       4.47339921       2.41394775      14.65014309        4       0.00026227      -0.00019590       0.00106304
Al       7.35166310       2.42284555      14.65309393        4      -0.00034325      -0.00090472       0.00083915
Al      10.20842616       2.41742899      14.63418692        4       0.00010341      -0.00022750       0.00106642
Al       3.03547630       4.89509220      14.62456161        4       0.00050912      -0.00028098       0.00236978
Al       5.91524625       4.90367385      14.62823375        4      -0.00077910      -0.00141663       0.00097446
Al       8.78630951       4.90756813      14.64088422        4      -0.00042575      -0.00162435       0.00062631
Al      11.63208148       4.89654806      14.61746694        4       0.00153215       0.00077974       0.00723441
Al       4.47795807       7.39455798      14.64257327        4      -0.00048124      -0.00176886       0.00125194
Al       7.36160660       7.39816555      14.65422952        4      -0.00245488      -0.00250753       0.00051351
Al      10.21408069       7.39325623      14.68493380        4       0.00060362      -0.00058719       0.00130691
Al      13.06292581       7.38923917      14.68966318        4       0.00000440      -0.00088877       0.00013548
Al       1.56205710       0.71642460      16.98572568        3       0.00061111      -0.00075354       0.00088684
Al       4.42405799       0.68030902      17.02359774        3       0.00027245      -0.00006432       0.00159299
Al       7.29850194       0.69082746      17.02090201        3       0.00077623       0.00341020       0.00233496
Al      10.16516407       0.71608928      17.00285977        3      -0.00208569      -0.00195180      -0.00567563
Al       2.98244131       3.16524076      16.97980370        3       0.00031336      -0.00003346      -0.00118184
Al       5.86274686       3.15817252      16.94664348        3      -0.00001930      -0.00005165       0.00224349
Al       8.74932699       3.17491427      16.97100086        3      -0.00374976      -0.00252926       0.00173082
Al      11.58836811       3.18694532      16.95051695        3       0.00076669      -0.00030367       0.00722129
Al       4.41142088       5.65196263      16.91898562        3       0.00022203      -0.00020816       0.00148569
Al       7.29979332       5.66008867      16.93714913        3       0.00040179      -0.00022128       0.00090031
Al      10.16186767       5.66135926      16.98412457        3       0.00090767       0.00023339       0.00062546
Al      13.00117290       5.65433073      16.96959625        3       0.00010158      -0.00028757       0.00110267
Al       5.86814078       8.15469388      16.94858793        3       0.00014153      -0.00010337       0.00116146
Al       8.74928014       8.15997300      17.00824502        3       0.00007084       0.00021960       0.00222085
Al      11.59105668       8.15017405      17.07549550        3      -0.00018100      -0.00042881       0.00104862
Al      14.44330528       8.15470910      16.99460537        3       0.00000626      -0.00053431      -0.00020285
Al       0.08589422       1.53843986      19.32569560        2      -0.00101059      -0.00457027      -0.00149334
Al       2.95002534       1.46911236      19.32763248        2      -0.00417500      -0.00012193      -0.00956961
Al       5.79688243       1.46953916      19.32204388        2       0.00045940      -0.00204790      -0.00389528
Al       8.68667688       1.48114691      19.36697920        2      -0.00104506      -0.00178422      -0.00581121
Al       1.48593866       3.94032377      19.32284103        2       0.00050159      -0.00140687      -0.00860792
Al       4.36432031       3.96122374      19.23951923        2      -0.00321605      -0.00006261      -0.00641187
Al       7.24200457       3.96871152      19.21893751        2       0.00126701      -0.00074240      -0.00889557
Al      10.12852129       3.94573942      19.30151751        2       0.00121033      -0.00016963      -0.01067562
Al       2.92073369       6.44958956      19.24284846        2      -0.00110584      -0.00141183      -0.00747253
Al       5.79742317       6.44440908      19.18844792        2       0.00177345       0.00174859      -0.00430151
Al       8.69290366       6.46379132      19.23996137        2       0.00039069      -0.00154874      -0.00560717
Al      11.52001936       6.41036710      19.35098708        2       0.00031519       0.00158913      -0.00347874
Al       4.39190250       8.94595770      19.25900288        2      -0.00062195       0.00070561      -0.00828234
Al       7.24216461       8.97779705      19.26625072        2       0.00150104      -0.00096811      -0.00753174
Al      10.11954871       8.90689173      19.56348330        2       0.00165096       0.00598064      -0.01306548
Al      12.97811412       8.95986314      19.40767224        2       0.00474042       0.00029827       0.00145095
Al      -0.09248853      -0.07636563      21.60663922        1      -0.00120750      -0.00678352       0.00646075
Al       2.61607783      -0.24566188      22.03071662        1      -0.00050286       0.00346934      -0.00151710
Al       5.64577698      -0.17454862      22.14699894        1       0.00060373       0.00262030      -0.00127128
Al       8.57413119      -0.34327977      22.10649899        1      -0.00061540       0.00147875      -0.00194679
Al       1.42888599       2.34395401      22.07003868        1       0.00142211       0.00228741      -0.00143437
Al       4.26244966       2.32573753      21.62639400        1       0.00158589       0.00006801       0.00023119
Al       7.10526939       2.27057271      21.62223132        1       0.00403857       0.00447267       0.00077739
Al       9.88494024       2.27299069      21.85678813        1       0.00003693       0.00176093       0.00158578
Al       2.84678933       4.79826366      21.54302551        1       0.00515440       0.00124406       0.00103155
Al       5.72613130       4.76781891      21.51316737        1       0.00057936       0.00014742      -0.00219208
Al       8.53481717       4.75486399      21.55803378        1       0.00319239       0.00268972       0.00086798
Al      11.43911906       4.90116634      22.11831981        1       0.00021707      -0.00232795      -0.00135023
Al       4.30267826       7.24151304      21.49847210        1       0.00033397       0.00143273      -0.00715637
Al       7.05132983       7.24867768      21.51719007        1       0.00342690      -0.00271428       0.00299466
Al       9.77758711       7.22516430      21.93585975        1       0.00107663       0.00059594      -0.00405888
Al      12.81572303       7.28099136      21.63159194        1       0.00045210       0.00207242       0.00378723
C        4.46948406       5.74752051      24.76955575        0      -0.01950095       0.00633384       0.01254129
N        4.90229607       4.48599928      24.82571982        0      -0.01921567      -0.02188636       0.00218772
C        6.26200730       4.61720302      24.91827398        0       0.03310465      -0.02637811       0.00907372
N        6.70163480       5.88263293      24.89586719        0       0.01204039       0.00589698       0.00293416
N        5.53396953       6.59239026      24.83863719        0       0.00535518       0.00850259       0.01417078
H        3.44821328       6.08374470      24.61861537        0      -0.03310965       0.00195698      -0.00918926
H        6.94942021       3.77226845      24.92581123        0       0.00987350      -0.00524723       0.00736519
H        5.54438612       7.54955328      24.49798172        0      -0.00496625       0.05947128      -0.03002243
