104
Lattice="11.45512985522207 0.0 0.0 5.727564927611035 9.92043345827187 0.0 0.0 0.0 31.691342951089922" Properties=species:S:1:pos:R:3:tags:I:1:forces:R:3 energy=-419.84857177734375 free_energy=-419.84857177734375 stress="0.0074010370299220085 5.443580448627472e-07 -5.029141902923584e-08 5.443580448627472e-07 0.00745253125205636 1.4998950064182281e-06 -5.029141902923584e-08 1.4998950064182281e-06 0.007598391268402338" pbc="T T F"
Al       1.60042937       0.85325351       9.93267413        6       0.00022530      -0.00054243      -0.00000794
Al       4.46565224       0.85285477       9.94874322        6       0.00023414      -0.00053043       0.00000652
Al       7.32579713       0.85206918       9.95363273        6       0.00020332      -0.00050807      -0.00012616
Al      10.18886669       0.85279999       9.93864187        6       0.00021167      -0.00053293      -0.00014496
Al       3.03052636       3.33495285       9.92618739        6       0.00022035      -0.00053788      -0.00008491
Al       5.89467314       3.33597043       9.93709001        6       0.00021998      -0.00058789      -0.00014591
Al       8.75653948       3.33568703       9.92606886        6       0.00024193      -0.00052890      -0.00008560
Al      11.62054824       3.33515366       9.91815888        6       0.00016751      -0.00045367       0.00000805
Al       4.45981547       5.81603162       9.95036933        6       0.00021875      -0.00057746      -0.00035788
Al       7.32497222       5.81763765       9.94805528        6       0.00022806      -0.00057388      -0.00031599
Al      10.18815837       5.81665860       9.94684133        6       0.00029030      -0.00048903      -0.00016898
Al      13.05119709       5.81560005       9.94594977        6       0.00017265      -0.00048493      -0.00010880
Al       5.89356434       8.29410778       9.95796150        6       0.00021360      -0.00056486      -0.00050878
Al       8.75939900       8.29555883       9.96316033        6       0.00028534      -0.00063112      -0.00025659
Al      11.62138431       8.29377134       9.97318092        6       0.00020809      -0.00058775      -0.00015886
Al      14.48196460       8.29327664       9.97342407        6       0.00017813      -0.00055760      -0.00055695
Al       0.18790589       1.64445627      12.33665758        5      -0.00072440      -0.00029596      -0.00064277
Al       3.04878802       1.64268104      12.34584654        5       0.00011660      -0.00047356      -0.00144451
Al       5.91372677       1.64167244      12.35748708        5      -0.00023525      -0.00081640       0.00043047
Al       8.77960458       1.64462458      12.34696409        5      -0.00085687      -0.00088471      -0.00015325
Al       1.61506363       4.12242890      12.33328874        5      -0.00001140      -0.00121503       0.00186983
Al       4.47815172       4.12123931      12.33872183        5       0.00024599      -0.00107074       0.00094093
Al       7.34947155       4.12267960      12.33887150        5      -0.00081201      -0.00162904       0.00007606
Al      10.21302549       4.12273387      12.33304209        5      -0.00032480      -0.00085441       0.00215979
Al       3.04468205       6.60510011      12.35937406        5       0.00011616      -0.00062810       0.00194669
Al       5.91610048       6.60595086      12.34988942        5      -0.00076803      -0.00077918       0.00048447
Al       8.78533849       6.60713385      12.35716862        5       0.00060090      -0.00044584       0.00140853
Al      11.64293204       6.60523584      12.36827220        5      -0.00062792      -0.00006041       0.00176266
Al       4.48244820       9.08922843      12.35717768        5      -0.00093345      -0.00164634      -0.00020287
Al       7.34956427       9.08909685      12.35694392        5      -0.00012771      -0.00098969      -0.00061517
Al      10.21218881       9.08731315      12.37818450        5       0.00046991      -0.00089023       0.00139938
Al      13.07196421       9.08657218      12.37927509        5      -0.00065221      -0.00071933       0.00155936
Al       0.17476054      -0.03458769      14.65279762        4       0.00035309      -0.00032055       0.00086382
Al       3.04194712      -0.03563217      14.67706272        4       0.00009812      -0.00063131       0.00027483
Al       5.90631192      -0.04225070      14.70444405        4      -0.00034407      -0.00049130      -0.00001759
Al       8.76960993      -0.03277547      14.67369076        4      -0.00052566      -0.00110409       0.00030060
Al       1.60541912       2.43985829      14.64471102        4      -0.00010695      -0.00090245      -0.00011727
Al       4.46454202       2.43119761      14.64859082        4       0.00035398      -0.00027256       0.00080843
Al       7.33918745       2.43435700      14.65111982        4      -0.00010870      -0.00053736       0.00055113
Al      10.20265917       2.44050561      14.64602059        4      -0.00024725      -0.00080847      -0.00001727
Al       3.02447681       4.91378381      14.63877600        4       0.00041707      -0.00020436       0.00075344
Al       5.90000230       4.91620831      14.63047942        4      -0.00010393      -0.00095760       0.00013419
Al       8.77486746       4.92012926      14.63920317        4       0.00004420      -0.00062579       0.00076839
Al      11.62575556       4.91882281      14.65135812        4       0.00039072      -0.00023123       0.00041610
Al       4.46441436       7.40638007      14.65149996        4       0.00003577      -0.00075510       0.00030746
Al       7.34508394       7.40477222      14.64874699        4       0.00016900      -0.00017734       0.00110649
Al      10.20817358       7.40983110      14.69392083        4       0.00025992      -0.00025132       0.00075739
Al      13.05306474       7.40560296      14.68840997        4       0.00024125      -0.00037798       0.00070427
Al       1.55933500       0.72860439      16.98832005        3      -0.00063082      -0.00077396       0.00047757
Al       4.41470729       0.69971079      17.02673690        3       0.00094549       0.00016624       0.00082412
Al       7.28929648       0.70388942      17.02201556        3      -0.00007598       0.00008362       0.00072801
Al      10.15046156       0.72345419      16.99221197        3       0.00104890       0.00009640       0.00107139
Al       2.97365495       3.18486679      16.96963265        3       0.00059553      -0.00044379       0.00021118
Al       5.85153528       3.17950492      16.94898924        3       0.00008124      -0.00065937       0.00068618
Al       8.72901386       3.18747567      16.96700323        3       0.00045493      -0.00041852       0.00036317
Al      11.58572520       3.19256060      16.96578367        3      -0.00012033      -0.00045426       0.00132578
Al       4.40724413       5.67346330      16.93311688        3       0.00007125      -0.00060276       0.00019396
Al       7.29252557       5.67838101      16.92940390        3       0.00121115       0.00023201       0.00067970
Al      10.16510182       5.68316895      16.98130460        3      -0.00047822      -0.00030677       0.00096455
Al      12.99642699       5.66769909      16.98664771        3       0.00040787       0.00014515       0.00040326
Al       5.86195829       8.16905208      16.95322631        3       0.00037176       0.00042985       0.00040360
Al       8.74341787       8.18297049      17.00869545        3      -0.00015897      -0.00102375       0.00060545
Al      11.58679700       8.16586043      17.09124680        3       0.00019762      -0.00028526       0.00043898
Al      14.43499952       8.16598522      17.00109790        3      -0.00071683      -0.00073554      -0.00119194
Al       0.07438441       1.52441982      19.33840846        2      -0.00013035      -0.00194420       0.00059734
Al       2.92507940       1.48189347      19.32360298        2      -0.00140903       0.00078164      -0.00569595
Al       5.78849108       1.48538793      19.31156102        2       0.00131766      -0.00055611       0.00351591
Al       8.67238779       1.49544898      19.33212954        2       0.00038223      -0.00100139      -0.00212959
Al       1.48700520       3.94415222      19.30291794        2       0.00057996       0.00079751       0.00279460
Al       4.34841585       3.96934613      19.22722866        2       0.00105144       0.00201243       0.00220555
Al       7.24102809       3.98572399      19.20329095        2      -0.00116364      -0.00120314       0.00010524
Al      10.12923196       3.96702370      19.26719506        2       0.00017761       0.00027848      -0.00083448
Al       2.91364958       6.45561871      19.25137215        2      -0.00090696       0.00046328      -0.00017980
Al       5.79264375       6.46621780      19.18649113        2       0.00178246      -0.00236078       0.00091232
Al       8.68242598       6.48041859      19.22971707        2       0.00057925      -0.00113834       0.00023606
Al      11.52242069       6.42725107      19.36339020        2       0.00035987       0.00079039      -0.00263807
Al       4.38270816       8.95194734      19.26062294        2       0.00117400       0.00120679      -0.00615417
Al       7.23681112       8.98352177      19.26372158        2       0.00042177       0.00023402      -0.00278709
Al      10.11222527       8.93326055      19.52248080        2       0.00044133      -0.00020309      -0.00046766
Al      12.98085286       8.96760309      19.44141775        2       0.00005355      -0.00198988      -0.00117249
Al      -0.09019281      -0.14451388      21.65831883        1      -0.00074526       0.00150752       0.00068749
Al       2.64048305      -0.21915981      22.06186392        1      -0.00173167       0.00025109      -0.00189385
Al       5.63261717      -0.16339925      22.09542745        1      -0.00005184       0.00110897       0.00116651
Al       8.56361691      -0.28513831      22.08477122        1       0.00046157      -0.00326431       0.00313251
Al       1.41838450       2.34714594      22.07883433        1       0.00049950       0.00100251      -0.00159288
Al       4.26131254       2.32495214      21.61065232        1       0.00082013       0.00168748       0.00141898
Al       7.10446619       2.31321830      21.61249766        1       0.00001178      -0.00034753      -0.00372172
Al       9.88610190       2.30964098      21.78309127        1       0.00084253      -0.00116263       0.00259820
Al       2.85282538       4.79058624      21.55774090        1       0.00077042       0.00206952      -0.00303914
Al       5.71026557       4.78424055      21.50201935        1       0.00126947       0.00054232       0.00251366
Al       8.51367579       4.78096932      21.54389316        1       0.00089064      -0.00093796       0.00039592
Al      11.38904236       4.86737349      22.07604459        1       0.00374608       0.00118924      -0.00190999
Al       4.27279998       7.25806986      21.52315732        1       0.00012488       0.00093625      -0.00470621
Al       7.04230766       7.25829615      21.52159515        1       0.00129101       0.00029846       0.00101635
Al       9.74923247       7.22396969      21.92411894        1       0.00239108       0.00168658      -0.00335809
Al      12.81465257       7.26140430      21.69423479        1       0.00036117       0.00331544      -0.00340611
C        4.61539744       5.58922443      24.79516969        0      -0.02475306       0.00442009      -0.00233006
N        5.08770897       4.34166523      24.85773529        0      -0.00061473       0.00514728       0.00098378
C        6.44335924       4.51884126      24.95276553        0       0.00668014       0.02077276       0.00758334
N        6.84139658       5.79797826      24.92640485        0       0.00516084      -0.00768787      -0.00032231
N        5.65199758       6.47223021      24.86558635        0      -0.00708190       0.00832309      -0.00614023
H        3.58574731       5.89192888      24.61957090        0       0.00170659      -0.00730489       0.00457724
H        7.16239044       3.70061802      24.97395061        0       0.00079464      -0.00769260       0.00103243
H        5.62777846       7.41805106      24.48668420        0      -0.00067901       0.01325915      -0.00674256
