104
Lattice="11.45512985522207 0.0 0.0 5.727564927611035 9.92043345827187 0.0 0.0 0.0 31.691342951089922" Properties=species:S:1:pos:R:3:tags:I:1:forces:R:3 energy=-418.90362548828125 free_energy=-418.90362548828125 stress="0.005290977191179991 3.3760443329811096e-07 -4.4191256165504456e-07 3.3760443329811096e-07 0.005360668525099754 7.156282663345337e-06 -4.4191256165504456e-07 7.156282663345337e-06 0.006317748222500086" pbc="T T F"
Al       1.43189123       0.82670279      10.00000000        6      -0.00010943       0.00137840      -0.00778755
Al       4.29567370       0.82670279      10.00000000        6      -0.00018787       0.00154110      -0.00784045
Al       7.15945616       0.82670279      10.00000000        6      -0.00015646       0.00121883      -0.00805103
Al      10.02323862       0.82670279      10.00000000        6      -0.00015165       0.00137288      -0.00803255
Al       2.86378246       3.30681115      10.00000000        6      -0.00003065       0.00131333      -0.00818873
Al       5.72756493       3.30681115      10.00000000        6      -0.00047671       0.00128322      -0.00817356
Al       8.59134739       3.30681115      10.00000000        6      -0.00002305       0.00137113      -0.00801239
Al      11.45512986       3.30681115      10.00000000        6      -0.00009203       0.00120299      -0.00806793
Al       4.29567370       5.78691952      10.00000000        6      -0.00028457       0.00143493      -0.00830746
Al       7.15945616       5.78691952      10.00000000        6      -0.00026266       0.00153372      -0.00825070
Al      10.02323862       5.78691952      10.00000000        6      -0.00019365       0.00156215      -0.00820937
Al      12.88702109       5.78691952      10.00000000        6      -0.00028566       0.00123795      -0.00822981
Al       5.72756493       8.26702788      10.00000000        6      -0.00033835       0.00144384      -0.00804539
Al       8.59134739       8.26702788      10.00000000        6      -0.00004317       0.00134031      -0.00795416
Al      11.45512986       8.26702788      10.00000000        6      -0.00031808       0.00146407      -0.00805905
Al      14.31891232       8.26702788      10.00000000        6      -0.00006233       0.00148226      -0.00802336
Al      -0.00000000       1.65340558      12.33826859        5       0.00295019       0.00250492       0.06635126
Al       2.86378246       1.65340558      12.33826859        5       0.00366012       0.00279626       0.06672186
Al       5.72756493       1.65340558      12.33826859        5       0.00186402       0.00298896       0.06707080
Al       8.59134739       1.65340558      12.33826859        5       0.00262479       0.00226423       0.06704997
Al       1.43189123       4.13351394      12.33826859        5       0.00325561       0.00197680       0.06640354
Al       4.29567370       4.13351394      12.33826859        5       0.00225325       0.00298248       0.06767499
Al       7.15945616       4.13351394      12.33826859        5       0.00257444       0.00291078       0.06739423
Al      10.02323862       4.13351394      12.33826859        5       0.00257977       0.00315486       0.06754817
Al       2.86378246       6.61362231      12.33826859        5       0.00323962       0.00130093       0.06767558
Al       5.72756493       6.61362231      12.33826859        5       0.00240060       0.00172251       0.06754307
Al       8.59134739       6.61362231      12.33826859        5       0.00309455       0.00174904       0.06766202
Al      11.45512986       6.61362231      12.33826859        5       0.00240127       0.00217897       0.06796812
Al       4.29567370       9.09373067      12.33826859        5       0.00275380       0.00170965       0.06730897
Al       7.15945616       9.09373067      12.33826859        5       0.00289895       0.00143113       0.06719673
Al      10.02323862       9.09373067      12.33826859        5       0.00237343       0.00217695       0.06709316
Al      12.88702109       9.09373067      12.33826859        5       0.00269011       0.00125695       0.06683000
Al       0.00000000       0.00000000      14.67653718        4       0.00005670       0.00153372      -0.00389346
Al       2.86378246       0.00000000      14.67653718        4       0.00007220       0.00151308      -0.00387673
Al       5.72756493       0.00000000      14.67653718        4       0.00006300       0.00149463      -0.00385815
Al       8.59134739       0.00000000      14.67653718        4       0.00004727       0.00149057      -0.00386089
Al       1.43189123       2.48010836      14.67653718        4       0.00007828       0.00148062      -0.00395433
Al       4.29567370       2.48010836      14.67653718        4       0.00009162       0.00146702      -0.00403665
Al       7.15945616       2.48010836      14.67653718        4       0.00008420       0.00145859      -0.00398081
Al      10.02323862       2.48010836      14.67653718        4       0.00009687       0.00147190      -0.00394375
Al       2.86378246       4.96021673      14.67653718        4       0.00007977       0.00148103      -0.00398617
Al       5.72756493       4.96021673      14.67653718        4       0.00007559       0.00149556      -0.00413397
Al       8.59134739       4.96021673      14.67653718        4       0.00012515       0.00152575      -0.00397496
Al      11.45512986       4.96021673      14.67653718        4       0.00007675       0.00152884      -0.00390807
Al       4.29567370       7.44032509      14.67653718        4       0.00005346       0.00152955      -0.00390982
Al       7.15945616       7.44032509      14.67653718        4       0.00007373       0.00151930      -0.00392215
Al      10.02323862       7.44032509      14.67653718        4       0.00005584       0.00152940      -0.00386275
Al      12.88702109       7.44032509      14.67653718        4       0.00005580       0.00152291      -0.00383961
Al       1.43189123       0.82670279      17.01480577        3       0.00002689       0.00158544      -0.00375170
Al       4.29567370       0.82670279      17.01480577        3       0.00002536       0.00159811      -0.00374019
Al       7.15945616       0.82670279      17.01480577        3       0.00001865       0.00158541      -0.00370786
Al      10.02323862       0.82670279      17.01480577        3       0.00002111       0.00158257      -0.00373935
Al       2.86378246       3.30681115      17.01480577        3       0.00004164       0.00159532      -0.00376543
Al       5.72756493       3.30681115      17.01480577        3       0.00003956       0.00160240      -0.00372305
Al       8.59134739       3.30681115      17.01480577        3       0.00001053       0.00158772      -0.00371680
Al      11.45512986       3.30681115      17.01480577        3       0.00001209       0.00159327      -0.00372895
Al       4.29567370       5.78691952      17.01480577        3       0.00003076       0.00158425      -0.00375865
Al       7.15945616       5.78691952      17.01480577        3       0.00002827       0.00157382      -0.00372526
Al      10.02323862       5.78691952      17.01480577        3       0.00001683       0.00157918      -0.00374248
Al      12.88702109       5.78691952      17.01480577        3       0.00001802       0.00158630      -0.00373368
Al       5.72756493       8.26702788      17.01480577        3       0.00001656       0.00156614      -0.00374922
Al       8.59134739       8.26702788      17.01480577        3       0.00002007       0.00157415      -0.00374408
Al      11.45512986       8.26702788      17.01480577        3       0.00001418       0.00158351      -0.00370581
Al      14.31891232       8.26702788      17.01480577        3       0.00001634       0.00159062      -0.00370903
Al      -0.00000000       1.65340558      19.35307436        2      -0.00052676       0.00429130      -0.02924944
Al       2.86378246       1.65340558      19.35307436        2       0.00458948       0.00572034      -0.02695423
Al       5.72756493       1.65340558      19.35307436        2       0.00018128       0.01161587      -0.03180637
Al       8.59134739       1.65340558      19.35307436        2       0.00229182       0.01146700      -0.03173342
Al       1.43189123       4.13351394      19.35307436        2       0.00313536      -0.00082796      -0.02726735
Al       4.29567370       4.13351394      19.35307436        2       0.00434383       0.00213753      -0.02131147
Al       7.15945616       4.13351394      19.35307436        2       0.00232499       0.00161991      -0.02333847
Al      10.02323862       4.13351394      19.35307436        2      -0.00397848       0.00244295      -0.02614938
Al       2.86378246       6.61362231      19.35307436        2       0.00817460      -0.00585271      -0.01688689
Al       5.72756493       6.61362231      19.35307436        2       0.00288538      -0.00409611      -0.01786784
Al       8.59134739       6.61362231      19.35307436        2      -0.00385483      -0.00435648      -0.02280345
Al      11.45512986       6.61362231      19.35307436        2      -0.00383177      -0.00651983      -0.02575317
Al       4.29567370       9.09373067      19.35307436        2       0.00446993       0.00130692      -0.01895618
Al       7.15945616       9.09373067      19.35307436        2       0.00174887      -0.00707765      -0.02752831
Al      10.02323862       9.09373067      19.35307436        2      -0.00292984       0.00028467      -0.02379297
Al      12.88702109       9.09373067      19.35307436        2       0.00036369       0.00171159      -0.00562353
Al       0.00000000       0.00000000      21.69134295        1      -0.01503602      -0.01665900      -0.00455020
Al       2.86378246       0.00000000      21.69134295        1       0.00406985      -0.00774712      -0.00478454
Al       5.72756493       0.00000000      21.69134295        1      -0.01198243       0.01876190      -0.00738826
Al       8.59134739       0.00000000      21.69134295        1      -0.00142425       0.01824414      -0.01757400
Al       1.43189123       2.48010836      21.69134295        1       0.00155826       0.00905497      -0.00701728
Al       4.29567370       2.48010836      21.69134295        1       0.03295441       0.01413663      -0.08545836
Al       7.15945616       2.48010836      21.69134295        1       0.01560050      -0.01032448      -0.06940796
Al      10.02323862       2.48010836      21.69134295        1      -0.03661533       0.03346508      -0.05209871
Al       2.86378246       4.96021673      21.69134295        1       0.04180715       0.01605321      -0.02165597
Al       5.72756493       4.96021673      21.69134295        1      -0.03404856      -0.01339401      -0.27185118
Al       8.59134739       4.96021673      21.69134295        1       0.00738060       0.03030827      -0.15956141
Al      11.45512986       4.96021673      21.69134295        1      -0.03149080       0.01191097      -0.02668419
Al       4.29567370       7.44032509      21.69134295        1       0.03997181      -0.04242234       0.00153037
Al       7.15945616       7.44032509      21.69134295        1       0.00309045      -0.03788285      -0.09654553
Al      10.02323862       7.44032509      21.69134295        1      -0.03673473      -0.04173021      -0.04111027
Al      12.88702109       7.44032509      21.69134295        1       0.00274404      -0.00942450      -0.00099358
C        6.18528471       3.89783549      24.73588972        0      -0.54688460      -1.62990034       0.30366543
N        7.43766041       3.40275693      24.75856364        0      -0.86550707      -0.24478725       0.02817451
C        8.19086857       4.52116430      24.68500445        0      -0.38909954       0.57569700       0.11831026
N        7.44437414       5.64014582      24.62075924        0       1.84057820       1.64006257      -0.08726054
N        6.18854383       5.23668623      24.65343221        0      -1.06668961       0.03437677       0.20393206
H        5.29038975       3.29126114      24.77882429        0      -0.20051950      -0.07882033      -0.09926941
H        9.27248896       4.51859450      24.67842322        0       0.25942603       0.07383116      -0.00940344
H        5.35685060       5.86647827      24.61984683        0       0.92532229      -0.46337512      -0.03955663
