104
Lattice="11.45512985522207 0.0 0.0 5.727564927611035 9.92043345827187 0.0 0.0 0.0 31.691342951089922" Properties=species:S:1:pos:R:3:tags:I:1:forces:R:3 energy=-420.05108642578125 free_energy=-420.05108642578125 stress="0.009482469409704208 -9.313225746154785e-08 6.984919309616089e-08 -9.313225746154785e-08 0.00952515285462141 2.248212695121765e-06 6.984919309616089e-08 2.248212695121765e-06 0.009756132960319519" pbc="T T F"
Al       1.48607760       0.85099105       9.85458575        6       0.00085106      -0.00006402       0.00168897
Al       4.35060616       0.85107550       9.87592505        6       0.00088467      -0.00018539       0.00168928
Al       7.21143732       0.85157261       9.89448822        6       0.00086045      -0.00017716       0.00162386
Al      10.07430920       0.85108838       9.86788790        6       0.00080228      -0.00001062       0.00163253
Al       2.91627725       3.33587465       9.86917124        6       0.00081555      -0.00020608       0.00148583
Al       5.77695490       3.33594015       9.87900469        6       0.00098220      -0.00024945       0.00149562
Al       8.63937102       3.33706495       9.86715747        6       0.00097761      -0.00032927       0.00155172
Al      11.50534849       3.33657528       9.85933738        6       0.00085214      -0.00020619       0.00155522
Al       4.34272132       5.81309303       9.90910128        6       0.00091549       0.00002173       0.00138315
Al       7.20581211       5.81248111       9.89336046        6       0.00094415       0.00003231       0.00146018
Al      10.07044107       5.81364736       9.89533950        6       0.00093696      -0.00011504       0.00149782
Al      12.93557441       5.81384666       9.90251882        6       0.00085971       0.00002005       0.00149459
Al       5.77610458       8.29081676       9.89367572        6       0.00094188      -0.00003261       0.00147931
Al       8.64308082       8.28838652       9.88891215        6       0.00086664       0.00006115       0.00160078
Al      11.50551104       8.28726558       9.91912371        6       0.00096002       0.00013214       0.00155871
Al      14.36955651       8.28934343       9.92434411        6       0.00072913       0.00010028       0.00145500
Al       0.10769366       1.67067780      12.29592625        5       0.00013326      -0.00102677       0.00543547
Al       2.96915867       1.66941917      12.30755217        5       0.00057884      -0.00020287       0.00227107
Al       5.83310883       1.66926396      12.32751236        5       0.00015029      -0.00106891      -0.00069634
Al       8.70234969       1.66905170      12.31538379        5      -0.00158999      -0.00066578       0.00211398
Al       1.53677947       4.14901642      12.31057627        5       0.00152832      -0.00033922       0.00377477
Al       4.39925598       4.14956674      12.31911986        5       0.00075205      -0.00084581       0.00020097
Al       7.27233504       4.14967564      12.31471153        5      -0.00115600      -0.00114128      -0.00177479
Al      10.13854142       4.14754725      12.31199516        5      -0.00287232      -0.00009529      -0.00082488
Al       2.96672145       6.63445473      12.35208772        5       0.00034284       0.00088944       0.00256811
Al       5.83406051       6.63776839      12.33401683        5       0.00005154      -0.00072831       0.00024528
Al       8.70320473       6.63718664      12.33159747        5       0.00001610      -0.00061487       0.00200805
Al      11.56453939       6.63255848      12.35565455        5       0.00022844       0.00294454      -0.00145939
Al       4.40138888       9.11723070      12.33286067        5      -0.00037224      -0.00094083       0.00465659
Al       7.26709160       9.11685522      12.32133834        5      -0.00006026      -0.00054329       0.00290631
Al      10.12935940       9.11700259      12.34754248        5       0.00160661      -0.00130227      -0.00183165
Al      12.99205594       9.11577308      12.36711652        5      -0.00087957      -0.00124428      -0.00128240
Al       0.10448481      -0.00775318      14.64189813        4       0.00263103       0.00162547       0.00292285
Al       2.97749987      -0.00273162      14.65279069        4       0.00030461       0.00045251       0.00133338
Al       5.83722838      -0.00135893      14.69581669        4      -0.00072797      -0.00109664      -0.00604900
Al       8.70165327      -0.00410061      14.68398077        4       0.00089492      -0.00034485      -0.00068888
Al       1.54305262       2.47384527      14.62450759        4      -0.00039017      -0.00170928      -0.00061638
Al       4.40265944       2.47584084      14.63934519        4       0.00003108      -0.00205178      -0.00181543
Al       7.27612213       2.46772302      14.63722600        4      -0.00224571      -0.00113614      -0.00528384
Al      10.13752662       2.46900708      14.63625908        4       0.00353467      -0.00354190      -0.00744372
Al       2.97208202       4.96196717      14.64447016        4      -0.00011534      -0.00054400       0.00058178
Al       5.84034976       4.95859533      14.62055604        4       0.00032648      -0.00013088       0.00112043
Al       8.71751766       4.96041274      14.62926332        4      -0.00031239      -0.00058227      -0.00030684
Al      11.57388771       4.95653569      14.63767415        4       0.00064334       0.00025810       0.00152470
Al       4.40223473       7.45172736      14.67137931        4       0.00030498      -0.00068784      -0.00044178
Al       7.27684250       7.44572838      14.65338590        4      -0.00012450       0.00075745      -0.00031567
Al      10.14326634       7.45239253      14.67788886        4       0.00091948      -0.00009059       0.00057681
Al      13.00227708       7.44872851      14.70741623        4       0.00017280      -0.00032055      -0.00018100
Al       1.52316793       0.77192686      16.99164011        3      -0.00365369      -0.00394682      -0.00137872
Al       4.37326501       0.76985768      17.01933399        3       0.00151080      -0.00088922      -0.00052892
Al       7.25137673       0.75884557      17.02264176        3      -0.00498562      -0.00186974       0.00142306
Al      10.11631508       0.76825292      17.01682360        3       0.00369662      -0.00427703      -0.00039693
Al       2.93543182       3.23051640      16.95567880        3       0.00226661       0.00195444       0.00114188
Al       5.81865770       3.23895646      16.94012321        3       0.00028370       0.00009667       0.00122623
Al       8.69419412       3.23279918      16.93440264        3      -0.00047629       0.00431817       0.00548585
Al      11.56170659       3.23505735      16.95903343        3      -0.00661284       0.00208375       0.00039617
Al       4.37596087       5.74497813      16.95175646        3      -0.00732054      -0.00483306      -0.00442005
Al       7.25434725       5.74505938      16.92357190        3       0.00056952      -0.00135034       0.00204233
Al      10.12769932       5.75660464      16.96321832        3       0.00134747      -0.00226028       0.00105552
Al      12.96430627       5.73953147      17.00532184        3       0.00707158       0.00153927      -0.00429130
Al       5.80783665       8.22735454      17.00344018        3       0.00469362       0.01169819      -0.00670312
Al       8.68982472       8.23564535      17.00141838        3       0.00049801       0.00044182       0.00050882
Al      11.56670476       8.22928632      17.07394191        3       0.00039795       0.00040705       0.00113672
Al      14.41207725       8.23929296      17.07667718        3      -0.00035547      -0.00054396      -0.00098689
Al       0.05863028       1.55222567      19.34565670        2       0.00632583       0.00108602      -0.00302958
Al       2.87206868       1.53844385      19.35833973        2      -0.00138123       0.00180434      -0.00375623
Al       5.75139935       1.55468604      19.31420662        2       0.00078182      -0.00043131      -0.00638487
Al       8.63400581       1.54641564      19.30018448        2      -0.00015364       0.00269006       0.00452874
Al       1.48422910       4.03182286      19.27338562        2      -0.00163527       0.00067670      -0.00466895
Al       4.32672143       4.03766535      19.21493146        2      -0.00306878      -0.00258121      -0.00071299
Al       7.21842436       4.04666305      19.20396905        2       0.00406007      -0.00469294      -0.00131937
Al      10.10599185       4.04771728      19.21783805        2       0.00050882      -0.00001159      -0.00538676
Al       2.92100295       6.53536257      19.31626575        2      -0.00651141       0.00032674      -0.00329241
Al       5.77227243       6.53475013      19.22260558        2      -0.00037179       0.00075287      -0.00237472
Al       8.65494420       6.53882258      19.22793380        2       0.00052853       0.00004021       0.00344041
Al      11.52770116       6.53005744      19.36459571        2      -0.00049220      -0.00209989       0.00015724
Al       4.36010966       9.02364289      19.46470787        2       0.00080511      -0.00060478      -0.00572645
Al       7.21821745       9.03635980      19.33426645        2       0.00042885       0.00080720      -0.00135373
Al      10.06772402       9.00443072      19.39653631        2       0.00177177      -0.00112380       0.00454293
Al      12.93492646       9.00636590      19.54047816        2       0.00074802       0.00022001       0.00149688
Al      -0.15881187      -0.27281385      22.01779357        1       0.00560057       0.00512828      -0.00733618
Al       2.73315485      -0.16873156      22.11900509        1      -0.00250582       0.00047755      -0.00106684
Al       5.52618714      -0.06125780      21.88923827        1       0.00547432      -0.00077370       0.00030576
Al       8.48866779      -0.05239420      22.02933166        1      -0.00019165       0.00027319      -0.00234608
Al       1.42056114       2.47227311      22.03142726        1      -0.00216510       0.00169843       0.00530603
Al       4.26393256       2.43833651      21.60308581        1       0.00003764       0.00059322       0.00235122
Al       7.10641608       2.41867880      21.63692280        1       0.00303234      -0.00160881      -0.00491080
Al      10.03681825       2.37737310      21.58567762        1      -0.00503720      -0.00300722       0.00734367
Al       2.80005836       4.86740957      21.58957335        1       0.00128561       0.00089399       0.00137773
Al       5.69982155       4.84937143      21.46272944        1       0.00019959      -0.00014351       0.00451109
Al       8.47793842       4.81969714      21.58013797        1      -0.00160363      -0.00207142       0.00043900
Al      11.25536336       4.91612033      21.75822359        1       0.00354227      -0.00232896       0.00356390
Al       4.21503385       7.27292849      21.71523149        1      -0.00211755      -0.00026428      -0.00394787
Al       7.04321807       7.31683109      21.53979588        1      -0.00275173       0.00017679       0.00373499
Al       9.73104502       7.23646785      21.81873581        1       0.00128703       0.00233779       0.00259706
Al      12.80490781       7.30464477      22.00189176        1      -0.00065929      -0.00245611      -0.00042406
C        5.29118537       4.86592867      24.85317043        0       0.00398424       0.02355651       0.00718017
N        5.99416929       3.76514333      25.13495477        0      -0.00250712       0.00286271      -0.02046570
C        7.27736534       4.22679809      25.24190683        0       0.00451418       0.02168408      -0.00540791
N        7.41546562       5.54690231      25.03800684        0      -0.00818674      -0.01212230      -0.00744900
N        6.12694610       5.94405166      24.82684938        0      -0.00537836      -0.01340266       0.01872432
H        4.23196542       4.92569174      24.61667873        0      -0.00376467      -0.00091598      -0.01241441
H        8.14097591       3.58411524      25.40984483        0      -0.00659797       0.00797022       0.00778271
H        5.92486645       6.84231371      24.38726275        0      -0.00525151      -0.01072080       0.00079950
