104
Lattice="11.45512985522207 0.0 0.0 5.727564927611035 9.92043345827187 0.0 0.0 0.0 31.691342951089922" Properties=species:S:1:pos:R:3:tags:I:1:forces:R:3 energy=-419.97113037109375 free_energy=-419.97113037109375 stress="0.007305142469704151 7.706694304943085e-07 -2.5890767574310303e-07 7.706694304943085e-07 0.007347771432250738 1.89291313290596e-06 -2.5890767574310303e-07 1.89291313290596e-06 0.007532589137554169" pbc="T T F"
Al       1.42998793       0.84266212       9.91263966        6       0.00080284      -0.00017570       0.00017818
Al       4.29440486       0.83824910       9.92732386        6       0.00084096       0.00004259       0.00006069
Al       7.15748057       0.83960511       9.94273884        6       0.00076516       0.00001915      -0.00000796
Al      10.01941226       0.84454607       9.92364254        6       0.00082088      -0.00025981       0.00011256
Al       2.85872455       3.32404118       9.93046564        6       0.00098861      -0.00008705       0.00006261
Al       5.72447779       3.31981473       9.93242938        6       0.00076110       0.00008228       0.00036317
Al       8.58859019       3.32098708       9.92875874        6       0.00065054       0.00009831       0.00018631
Al      11.45233163       3.32376138       9.92525012        6       0.00072011      -0.00005918       0.00013173
Al       4.28876637       5.80712467       9.96202405        6       0.00093275      -0.00039576      -0.00003190
Al       7.15368251       5.80546033       9.94708255        6       0.00076543      -0.00040164       0.00015262
Al      10.01978994       5.80420370       9.95411960        6       0.00061566      -0.00030010      -0.00022691
Al      12.88155027       5.80772253       9.96563453        6       0.00076967      -0.00037273      -0.00065628
Al       5.72279077       8.28611591       9.94191343        6       0.00083425      -0.00032018       0.00022229
Al       8.58972615       8.28330700       9.93659085        6       0.00072503      -0.00034686       0.00016195
Al      11.45427310       8.28525137       9.96822182        6       0.00062833      -0.00057019      -0.00057655
Al      14.31271031       8.28700568       9.96862578        6       0.00096874      -0.00044267      -0.00022245
Al       0.03413555       1.65155446      12.31672832        5       0.00095156       0.00094135       0.00771628
Al       2.90212026       1.65331407      12.31940659        5       0.00006111       0.00068177       0.00686196
Al       5.75967226       1.65301374      12.34262102        5       0.00072492       0.00001651       0.00231672
Al       8.61779418       1.65321195      12.33067196        5       0.00336940       0.00004539       0.00629631
Al       1.46977354       4.13710783      12.34200343        5      -0.00039449      -0.00131535       0.00224621
Al       4.33245958       4.13192099      12.35225236        5      -0.00098082       0.00023231      -0.00392948
Al       7.18795718       4.13374979      12.34546154        5       0.00456911       0.00059382      -0.00461213
Al      10.05413073       4.13335601      12.34073782        5       0.00225558       0.00003741       0.00116768
Al       2.89986703       6.62006006      12.37218156        5      -0.00020358      -0.00167056      -0.00234785
Al       5.76104793       6.61610186      12.36437156        5       0.00188025       0.00204902      -0.00856017
Al       8.62254515       6.62143682      12.35707891        5       0.00252210      -0.00120646      -0.00508626
Al      11.48597086       6.62250218      12.37010925        5       0.00304467      -0.00278914      -0.00468350
Al       4.32491411       9.09650962      12.35556068        5       0.00329580       0.00150790       0.00204956
Al       7.19460530       9.10047023      12.33793236        5       0.00053252      -0.00091639       0.00307264
Al      10.06047215       9.10026459      12.35913551        5      -0.00098264      -0.00064759      -0.00323433
Al      12.91723593       9.10149434      12.37718049        5       0.00336582      -0.00120348      -0.00272354
Al       0.04627288      -0.00542585      14.64843765        4       0.00052618       0.00018905       0.00116325
Al       2.90594670      -0.00701420      14.65008299        4       0.00078678       0.00015159       0.00108674
Al       5.76388400      -0.00737185      14.68211334        4       0.00158884      -0.00062475       0.00063414
Al       8.64014376      -0.00758420      14.67837373        4       0.00070983       0.00006298       0.00104391
Al       1.47614444       2.46415162      14.62813502        4       0.00066794       0.00016833       0.00097908
Al       4.33389353       2.45659624      14.65367036        4      -0.00006656       0.00063571      -0.00334197
Al       7.19598638       2.46476031      14.64202860        4       0.00146940      -0.00149754      -0.00053772
Al      10.06507104       2.46012864      14.63717509        4       0.00121328      -0.00025460      -0.00034453
Al       2.90771076       4.94856285      14.66068883        4      -0.00039959       0.00027524      -0.00094420
Al       5.76789920       4.94901129      14.65489685        4       0.00005053       0.00035905      -0.00245378
Al       8.63080296       4.95691860      14.64462878        4       0.00332777      -0.00084599      -0.00195241
Al      11.49809930       4.95270225      14.64362358        4       0.00089216       0.00009391       0.00108682
Al       4.34553228       7.44187735      14.67054988        4      -0.00140680       0.00006398       0.00065838
Al       7.20581350       7.45223118      14.66053376        4       0.00050323      -0.00041085      -0.00033649
Al      10.06257959       7.44525642      14.66449420        4       0.00507264       0.00018152       0.00439665
Al      12.93031579       7.43880433      14.67436791        4       0.00057899       0.00186672       0.00413494
Al       1.47696435       0.81346989      16.96863602        3       0.00138727      -0.00081081       0.01639820
Al       4.32806873       0.80301681      17.00033133        3      -0.00782318      -0.00688730       0.00191004
Al       7.19823135       0.79523207      17.01105867        3       0.00184418      -0.00245708      -0.00199467
Al      10.07811210       0.80220955      17.01953400        3       0.00431016      -0.00127704      -0.01705984
Al       2.90564769       3.27446829      16.96568918        3      -0.01421141      -0.00397798      -0.00162834
Al       5.75823381       3.26626449      16.95185961        3       0.00208413       0.00226769      -0.00720329
Al       8.63364413       3.26303034      16.92818227        3       0.00221999       0.00123113       0.00233647
Al      11.50263446       3.27122416      16.94083852        3       0.00478585       0.00303282       0.00739727
Al       4.31654223       5.77624754      16.96670225        3       0.00126776       0.00002683      -0.00068642
Al       7.19816440       5.78484199      16.93252340        3       0.00044021      -0.00262961       0.00036786
Al      10.08137580       5.78487884      16.96049588        3       0.00248737      -0.00172545      -0.00403335
Al      12.92928523       5.78933020      16.96999647        3      -0.00561980      -0.00633160       0.00800686
Al       5.76027339       8.26578950      16.98797753        3       0.00214960       0.00195988       0.00129588
Al       8.63763092       8.27779388      16.99584346        3       0.00138030       0.00092894      -0.00010984
Al      11.50694746       8.28596623      17.05150263        3      -0.00203087      -0.00906396      -0.00121807
Al      14.35831315       8.28769663      17.02904377        3      -0.00147003      -0.00782418       0.00167894
Al       0.06507705       1.62519692      19.34492928        2      -0.00151378      -0.00651957      -0.00625156
Al       2.86042879       1.62497207      19.36766818        2      -0.00350195      -0.00525181      -0.01181900
Al       5.73020556       1.60872065      19.24895443        2      -0.00103094      -0.00093032       0.00128388
Al       8.63732841       1.60079200      19.27032014        2       0.00093222      -0.00227321      -0.01395806
Al       1.45936361       4.09541662      19.27204342        2       0.00141123      -0.00072555      -0.00435150
Al       4.32352118       4.07435448      19.21681388        2      -0.00867804       0.00406533      -0.00217693
Al       7.19365188       4.10658263      19.18352692        2       0.00298195      -0.00204373      -0.00672786
Al      10.07062282       4.08362204      19.20202020        2      -0.00159252       0.00164164      -0.00387695
Al       2.87247625       6.60231380      19.27716035        2       0.00574784       0.00166493       0.00348203
Al       5.74516463       6.59200669      19.21681837        2       0.00175761       0.00889403      -0.00734197
Al       8.62977318       6.59606740      19.18454712        2      -0.00170682       0.00335222       0.01297448
Al      11.49485438       6.59966709      19.32226198        2       0.00190704       0.00619409      -0.00631707
Al       4.33664428       9.09880390      19.38715565        2      -0.00149299      -0.00741348      -0.00450094
Al       7.19626296       9.10550243      19.31797893        2       0.00148792       0.00061909      -0.00616460
Al      10.04916502       9.08692266      19.42857553        2       0.00088199      -0.00180154      -0.00230097
Al      12.92030426       9.06919299      19.50194170        2       0.00097556      -0.00033524       0.00033138
Al      -0.13598974      -0.14957577      22.00942501        1      -0.00239976      -0.00471154       0.00143981
Al       2.77931209      -0.03032547      22.03031604        1      -0.00061882      -0.00219100       0.00180816
Al       5.62975654       0.01165980      21.91348027        1      -0.00417857       0.00066749      -0.00064515
Al       8.46341801       0.03635812      21.93583408        1       0.00028146      -0.00339023       0.00176540
Al       1.41090550       2.60190108      22.11670085        1       0.00265108      -0.00772707      -0.00181254
Al       4.26662953       2.47496475      21.57978412        1       0.00653969      -0.00322742       0.00304782
Al       7.12562885       2.49538762      21.51614281        1      -0.00047107      -0.00100139       0.01232234
Al      10.04734712       2.44293078      21.58379352        1      -0.00486626      -0.00273399       0.00134745
Al       2.86706400       4.92766086      21.53591949        1       0.01030891       0.00180821       0.01847140
Al       5.73604500       4.94130378      21.42848928        1      -0.00044327      -0.00236507       0.00267204
Al       8.56296641       4.86414272      21.51041574        1      -0.00333679       0.00344889       0.01003602
Al      11.42511069       4.93125058      21.55182794        1      -0.00269088      -0.00386950       0.01041254
Al       4.20981268       7.36115024      21.62867393        1       0.00409510       0.00890625       0.01023652
Al       7.11516992       7.38490263      21.54262162        1      -0.00102576       0.00154028       0.00314055
Al       9.87477013       7.28073400      21.74609731        1      -0.00700115      -0.00236969       0.00269237
Al      12.79777022       7.28093917      22.12872194        1       0.00839516       0.00673530      -0.00166053
C        5.82762635       4.28578661      24.76366293        0      -0.03233019       0.01651966       0.00745969
N        6.82327389       3.44198517      25.04569230        0       0.00240427      -0.00364449       0.00479839
C        7.88756695       4.27373270      25.27496630        0      -0.01879210       0.01316342      -0.02042150
N        7.62214095       5.57701448      25.10790836        0      -0.00347329      -0.00061938       0.00009823
N        6.28209740       5.56997245      24.83759863        0      -0.00054403       0.01096988      -0.01269797
H        4.81943996       4.02452325      24.45046094        0      -0.00166620      -0.00887934       0.00321385
H        8.88365886       3.92019851      25.53086829        0       0.00802553      -0.00402322       0.00071094
H        5.83805322       6.36428682      24.37814561        0      -0.00274793       0.02812051      -0.00791476
