104
Lattice="11.45512985522207 0.0 0.0 5.727564927611035 9.92043345827187 0.0 0.0 0.0 31.691342951089922" Properties=species:S:1:pos:R:3:tags:I:1:forces:R:3 energy=-420.03375244140625 free_energy=-420.03375244140625 stress="0.00576670141890645 5.899928510189056e-07 -2.300366759300232e-07 5.899928510189056e-07 0.005826031323522329 2.1350570023059845e-06 -2.300366759300232e-07 2.1350570023059845e-06 0.0060630179941654205" pbc="T T F"
Al       1.42650317       0.84006272       9.95648687        6       0.00077824       0.00026350      -0.00177004
Al       4.29086112       0.83673719       9.96649107        6       0.00078253       0.00030997      -0.00178953
Al       7.15434775       0.83761962       9.97709439        6       0.00065069       0.00034485      -0.00171373
Al      10.01662979       0.84134250       9.96428700        6       0.00076371       0.00029711      -0.00179551
Al       2.85610441       3.32107174       9.96904856        6       0.00080016       0.00030475      -0.00178256
Al       5.72152688       3.31775059       9.96939586        6       0.00067088       0.00035052      -0.00138540
Al       8.58588509       3.31851351       9.96768728        6       0.00057567       0.00037832      -0.00173432
Al      11.44930363       3.32082274       9.96594863        6       0.00067170       0.00039318      -0.00198759
Al       4.28679132       5.80373173       9.99068229        6       0.00073461       0.00018580      -0.00155491
Al       7.15182300       5.80248971       9.98048855        6       0.00056710       0.00018081      -0.00166851
Al      10.01730774       5.80172951       9.98632808        6       0.00065713       0.00017865      -0.00213145
Al      12.87942584       5.80409554       9.99515434        6       0.00066019       0.00017995      -0.00233719
Al       5.72020597       8.28317908       9.97720979        6       0.00075868       0.00018830      -0.00163188
Al       8.58658083       8.28114962       9.97350266        6       0.00065113       0.00019464      -0.00180984
Al      11.45089482       8.28239732       9.99640848        6       0.00063697       0.00017582      -0.00234977
Al      14.31065602       8.28380069       9.99626868        6       0.00079218       0.00015152      -0.00192305
Al       0.02612860       1.65327094      12.33295229        5       0.00081730       0.00005143       0.00665009
Al       2.89145442       1.65335997      12.33759054        5       0.00032521       0.00019609       0.00482035
Al       5.75021686       1.65145212      12.35443072        5       0.00121380      -0.00051269      -0.00007542
Al       8.61348980       1.65188973      12.34470719        5       0.00234513       0.00009555       0.00515270
Al       1.45915652       4.13588544      12.35304168        5       0.00103891      -0.00049276       0.00261137
Al       4.32157194       4.13237625      12.36106035        5      -0.00020533       0.00024435      -0.00375973
Al       7.18258538       4.13305985      12.35347587        5       0.00204272       0.00035823      -0.00227831
Al      10.04932801       4.13408731      12.35053290        5       0.00142349      -0.00029227       0.00210170
Al       2.89025205       6.61746882      12.38251379        5       0.00014150       0.00017857      -0.00522701
Al       5.75377100       6.61567448      12.37262998        5       0.00063723       0.00233757      -0.00656076
Al       8.61543796       6.61815023      12.36540641        5       0.00179748       0.00162111      -0.00305078
Al      11.47861559       6.61771262      12.37844072        5       0.00278382       0.00075682      -0.00415456
Al       4.31839136       9.09642329      12.36364245        5       0.00224314       0.00017410       0.00221612
Al       7.18582572       9.09849989      12.35046770        5       0.00099956      -0.00088844       0.00313224
Al      10.04842797       9.09762953      12.36715632        5       0.00154516      -0.00068482      -0.00240252
Al      12.90959754       9.09862147      12.38350112        5       0.00246710      -0.00191435      -0.00290912
Al       0.03576799      -0.00630482      14.64770488        4       0.00052782       0.00043839       0.00014520
Al       2.89519739      -0.00733864      14.65057614        4       0.00084201       0.00043801       0.00005787
Al       5.75317414      -0.01070025      14.67627376        4       0.00120355       0.00023704      -0.00017177
Al       8.62964735      -0.01073602      14.67375511        4       0.00066392       0.00041033      -0.00002383
Al       1.46438329       2.46579253      14.63262108        4       0.00083962       0.00035383      -0.00022892
Al       4.32135941       2.45826792      14.64969609        4       0.00125598       0.00059378      -0.00074087
Al       7.18803536       2.46180930      14.63305098        4       0.00102527       0.00001446       0.00159122
Al      10.05826079       2.46209525      14.63876078        4       0.00052480       0.00015737      -0.00085605
Al       2.89270024       4.94765380      14.65892532        4       0.00118149       0.00116584      -0.00056486
Al       5.75510720       4.94917624      14.64390892        4       0.00158980       0.00102811       0.00058497
Al       8.62561476       4.95582888      14.63421053        4       0.00077836       0.00030647       0.00209499
Al      11.49090025       4.95194775      14.65100544        4       0.00055667       0.00062065      -0.00029590
Al       4.33090558       7.44313063      14.66718503        4      -0.00043380      -0.00023097       0.00029574
Al       7.19489929       7.44995813      14.65816827        4       0.00063690      -0.00067960      -0.00067659
Al      10.05535291       7.44383620      14.66546890        4       0.00175724       0.00039971       0.00102988
Al      12.91900728       7.43753794      14.67804224        4       0.00085952       0.00142822       0.00062000
Al       1.45986894       0.80949197      16.96475796        3       0.00247336       0.00263528       0.00602230
Al       4.31126071       0.80056245      16.99163280        3       0.00048653       0.00015823       0.00012204
Al       7.18469795       0.79307652      16.99346720        3       0.00156957      -0.00129772      -0.00397308
Al      10.06185566       0.80036611      17.00075471        3       0.00529220      -0.00324806      -0.01764393
Al       2.89595418       3.27777331      16.95099354        3      -0.00742612      -0.00150000       0.00208083
Al       5.74805846       3.28315200      16.95665448        3       0.00077105      -0.00803712      -0.02290718
Al       8.61888128       3.27373488      16.92665086        3       0.00516625      -0.00167868      -0.00859414
Al      11.49110757       3.27291850      16.93333225        3       0.00319369       0.00190943       0.00323476
Al       4.32290004       5.78262801      16.97253390        3      -0.01449999      -0.00203039      -0.01917787
Al       7.18427445       5.79087391      16.95277083        3       0.00238117      -0.00576883      -0.02733828
Al      10.06030523       5.79190870      16.95660157        3       0.00926098      -0.00079822      -0.01483871
Al      12.91909392       5.79602420      16.96606064        3      -0.00198101      -0.00944048       0.00890191
Al       5.74896526       8.26908729      16.98073492        3       0.00113353       0.00181030      -0.00033090
Al       8.62219782       8.27957985      16.98885835        3       0.00286423       0.00099699      -0.00125809
Al      11.48957859       8.28571916      17.03058605        3      -0.00176782      -0.00716161       0.00276936
Al      14.34548647       8.27441900      17.02036427        3       0.00077243       0.00041256       0.00002187
Al       0.04504693       1.62625209      19.31223070        2       0.00617509      -0.00048616       0.01152232
Al       2.85665526       1.63009789      19.33258824        2      -0.00428579      -0.00239935       0.00163650
Al       5.73283474       1.61834859      19.23101150        2      -0.00130476       0.00246363       0.00684722
Al       8.62527042       1.61262970      19.23374020        2      -0.00062307       0.00357950       0.00562103
Al       1.45274000       4.10027803      19.22931857        2       0.00202506       0.00200211       0.01863755
Al       4.31435713       4.09080870      19.20156019        2      -0.00361814       0.00462788       0.00997004
Al       7.19091742       4.11209680      19.15960017        2      -0.00148170       0.00163385       0.01207214
Al      10.05902452       4.10169237      19.16635697        2       0.00096260      -0.00063947       0.01541354
Al       2.86801917       6.62344693      19.28950584        2       0.00497489      -0.00722511       0.00656313
Al       5.73253678       6.61096567      19.20599443        2       0.00592321      -0.00064961       0.00999394
Al       8.62126182       6.60129777      19.18882341        2      -0.00024088       0.00333131       0.00948650
Al      11.49314050       6.61013700      19.29740985        2      -0.00340439       0.00388750       0.00826963
Al       4.32211665       9.09757167      19.38534967        2       0.00108177      -0.00340014       0.00000134
Al       7.18376658       9.10839631      19.28890779        2       0.00259779      -0.00173443       0.01771777
Al      10.04209397       9.09627954      19.42763258        2       0.00043697      -0.00301136      -0.00225074
Al      12.91147402       9.08052517      19.45643529        2      -0.00034407      -0.00149113       0.00110603
Al      -0.11025277      -0.12639938      21.95226107        1      -0.00079323      -0.00191826       0.00202817
Al       2.81356082      -0.03585553      21.97479389        1      -0.00370486      -0.00110595      -0.00054044
Al       5.65489347       0.03574068      21.86255435        1      -0.00291782      -0.00343696       0.00097104
Al       8.49407885       0.05321252      21.87279689        1      -0.00157732      -0.00535839       0.00328522
Al       1.42627350       2.60433662      22.03903315        1      -0.00158235      -0.00913860      -0.00288547
Al       4.27669039       2.47093083      21.57624647        1       0.00780358       0.01487914      -0.00959970
Al       7.14260608       2.51199499      21.50001381        1      -0.00217647       0.00094579       0.01394751
Al      10.04717639       2.46299159      21.54803501        1      -0.00898216      -0.00232191       0.00656406
Al       2.88010506       4.93485940      21.52275074        1       0.01194969       0.00248379       0.01538063
Al       5.74210393       4.94539905      21.46726602        1      -0.00095134       0.00043365      -0.02026255
Al       8.57667635       4.88086363      21.50303317        1      -0.00504100       0.00517702       0.00500342
Al      11.42897560       4.94350994      21.55128551        1      -0.00309051      -0.00338919       0.00508460
Al       4.23671243       7.38680314      21.66036309        1       0.00170395      -0.00067945       0.00242346
Al       7.12818136       7.39459351      21.52297662        1      -0.00620356      -0.00460127       0.00615864
Al       9.89366193       7.30146554      21.74437370        1      -0.00229024       0.00080511       0.00000632
Al      12.83405364       7.28937680      22.07416369        1      -0.00008817       0.00511944      -0.00467994
C        5.89187130       4.18317152      24.81994666        0       0.05234980       0.04236931      -0.00397967
N        6.96096734       3.41080234      25.03943231        0      -0.03786315      -0.01732429      -0.00074415
C        7.97760809       4.31003075      25.21169125        0       0.01391148       0.02396243       0.01334969
N        7.60916640       5.59195147      25.09062138        0       0.00178638       0.01311438      -0.00120240
N        6.26169916       5.49557111      24.88056117        0       0.10756820      -0.09835444       0.03679093
H        4.90094653       3.83002015      24.55056850        0      -0.05183468       0.02936375      -0.00282533
H        9.01164482       4.02664081      25.40781770        0      -0.04314952       0.00352711      -0.01744773
H        5.75942738       6.29585475      24.50599833        0      -0.08996679       0.02601269      -0.05628617
