104
Lattice="11.45512985522207 0.0 0.0 5.727564927611035 9.92043345827187 0.0 0.0 0.0 31.691342951089922" Properties=species:S:1:pos:R:3:tags:I:1:forces:R:3 energy=-419.9935302734375 free_energy=-419.9935302734375 stress="0.008950406685471535 4.7404319047927856e-07 -1.3690441846847534e-07 4.7404319047927856e-07 0.008990136906504631 2.139713615179062e-06 -1.3690441846847534e-07 2.139713615179062e-06 0.009213974699378014" pbc="T T F"
Al       1.44469242       0.84502265       9.88362202        6       0.00092477       0.00026667       0.00062924
Al       4.30922417       0.84276249       9.90074718        6       0.00091300       0.00023641       0.00066347
Al       7.17116268       0.84406066       9.91774933        6       0.00092798       0.00017783       0.00049926
Al      10.03361409       0.84625107       9.89559899        6       0.00092343       0.00022311       0.00053326
Al       2.87465441       3.32785152       9.90155104        6       0.00087722       0.00024129       0.00031977
Al       5.73788863       3.32557550       9.90748300        6       0.00087409       0.00022057       0.00030574
Al       8.60057185       3.32705138       9.89997963        6       0.00094948       0.00021073       0.00031832
Al      11.46583991       3.32787198       9.89457744        6       0.00089392       0.00029533       0.00026376
Al       4.30344658       5.80792008       9.93635515        6       0.00084599       0.00027476       0.00025795
Al       7.16632484       5.80648574       9.92103428        6       0.00098656       0.00027818       0.00035182
Al      10.03175439       5.80622958       9.92502693        6       0.00097199       0.00031742       0.00035683
Al      12.89545149       5.80871020       9.93379114        6       0.00092529       0.00028277       0.00037042
Al       5.73664033       8.28688925       9.91678932        6       0.00089522       0.00020365       0.00044595
Al       8.60303919       8.28384989       9.91086350        6       0.00095376       0.00024763       0.00065465
Al      11.46695060       8.28472896       9.94080917        6       0.00090360       0.00019031       0.00053557
Al      14.32822471       8.28671511       9.94412413        6       0.00088594       0.00020675       0.00042585
Al       0.05763294       1.65836826      12.30909372        5       0.00069596      -0.00050722       0.00592239
Al       2.91406795       1.65503764      12.31791253        5       0.00294107       0.00062985       0.00196268
Al       5.78280514       1.65462407      12.32891394        5       0.00039952       0.00005567       0.00259574
Al       8.65473482       1.65507839      12.32354778        5      -0.00108520       0.00067550       0.00486634
Al       1.48472814       4.13406928      12.32389437        5       0.00224373       0.00207295       0.00479554
Al       4.34783372       4.13664990      12.32697322        5       0.00072969       0.00009424       0.00094214
Al       7.21926248       4.13591253      12.32349569        5       0.00069339       0.00076330       0.00054088
Al      10.08679357       4.13714340      12.31610949        5      -0.00037679       0.00112682       0.00573117
Al       2.91784404       6.62362435      12.36390082        5       0.00050207       0.00135884      -0.00193223
Al       5.78498251       6.62706690      12.34417400        5       0.00036840       0.00070289      -0.00425545
Al       8.65339003       6.62544654      12.34556038        5       0.00043235       0.00120064      -0.00341414
Al      11.51445180       6.62383918      12.36378278        5       0.00081290       0.00185953      -0.00290945
Al       4.35466233       9.10471029      12.34046835        5       0.00017339       0.00001580       0.00563206
Al       7.21703093       9.10511812      12.32864612        5       0.00070636       0.00001744       0.00391923
Al      10.07797031       9.10248806      12.35329088        5       0.00189366       0.00068367      -0.00153784
Al      12.94391595       9.10248940      12.36765536        5       0.00032581       0.00036285      -0.00113517
Al       0.06643825      -0.00085665      14.65433202        4       0.00030397       0.00043362       0.00010004
Al       2.92601201      -0.00260028      14.65576720        4       0.00078044       0.00047897       0.00084476
Al       5.78837669      -0.00782766      14.68448860        4       0.00040980       0.00053680      -0.00047459
Al       8.65564639      -0.00698645      14.67669819        4       0.00114080       0.00049864       0.00011079
Al       1.49331346       2.46806286      14.63397425        4       0.00066406       0.00054172       0.00059628
Al       4.34958924       2.46267011      14.63178380        4       0.00115019       0.00059199       0.00046812
Al       7.22115582       2.45884376      14.63189531        4       0.00062773       0.00085087      -0.00014694
Al      10.09405978       2.47001310      14.63250135        4       0.00077459       0.00008761       0.00023507
Al       2.91582949       4.95512855      14.64516393        4       0.00090137       0.00059114       0.00066783
Al       5.78243432       4.95605426      14.60839572        4       0.00270329      -0.00056542       0.00572012
Al       8.66620877       4.95511553      14.62208479        4       0.00015521       0.00068531       0.00098542
Al      11.52080228       4.95728198      14.64461599        4       0.00087416       0.00050043       0.00124568
Al       4.35311721       7.44466116      14.67178721        4       0.00097623       0.00068273      -0.00013635
Al       7.22471653       7.44763598      14.64708154        4       0.00094404       0.00018811       0.00061797
Al      10.09987873       7.45017578      14.68020023        4      -0.00061174      -0.00063347      -0.00089412
Al      12.94909603       7.45017565      14.69828061        4       0.00106615      -0.00081324      -0.00036557
Al       1.47810334       0.79181845      16.99142002        3       0.00141581       0.00134091       0.00145207
Al       4.33589367       0.78677271      17.01098076        3       0.00082423       0.00055011       0.00089494
Al       7.20757405       0.76850296      17.00578026        3      -0.00056118       0.00316720       0.00299388
Al      10.07275108       0.79574556      17.00619911        3       0.01022897      -0.00674711      -0.00361075
Al       2.91226006       3.26062611      16.94483733        3      -0.00335185      -0.00011847       0.00357749
Al       5.77242000       3.26544944      16.92931304        3       0.00155384      -0.00053412       0.00068577
Al       8.65451094       3.26076547      16.91499200        3      -0.00066619       0.00054139       0.00586707
Al      11.52173752       3.26861449      16.97171360        3       0.00127197      -0.00114046      -0.00186912
Al       4.34801498       5.76518914      16.94686070        3      -0.00086720       0.00151725       0.00097189
Al       7.22044306       5.76248620      16.93332155        3      -0.00157054       0.00107946      -0.00337175
Al      10.07724506       5.77648841      16.97116232        3       0.01235625       0.00088296      -0.00507024
Al      12.93619223       5.77066329      17.00244381        3       0.00097310       0.00042642       0.00082768
Al       5.79214352       8.26712129      16.97775219        3      -0.00058678       0.00020652       0.00124846
Al       8.65716997       8.25172979      16.99051916        3       0.00046380       0.00210593       0.00238418
Al      11.52306183       8.25185441      17.06330889        3       0.00060690       0.00050595       0.00102414
Al      14.36681228       8.25222357      17.04721698        3       0.00100180       0.00035506       0.00093323
Al       0.03103448       1.57869802      19.35784463        2       0.01190713       0.00155951      -0.01271301
Al       2.85888436       1.58972545      19.34453350        2      -0.00413330       0.00028031      -0.00160406
Al       5.75270523       1.60614065      19.29305718        2      -0.00495864      -0.00380130      -0.00355321
Al       8.62582720       1.59884425      19.27337462        2      -0.00034575      -0.00447174       0.00324220
Al       1.47241718       4.08498398      19.28347686        2      -0.00155205      -0.00328045       0.00210552
Al       4.29146476       4.08434914      19.20322857        2       0.00732513      -0.00675166       0.00917070
Al       7.21228164       4.07551976      19.18468730        2      -0.00066895       0.00517974       0.00332246
Al      10.07762255       4.09114810      19.19399767        2       0.00257357      -0.00253134      -0.00009005
Al       2.89371984       6.57703585      19.34571988        2       0.00017943       0.00070580      -0.00736973
Al       5.76451879       6.61032910      19.21627128        2      -0.00284527      -0.00625868      -0.00104337
Al       8.62747441       6.58535207      19.25292780        2       0.00123407      -0.00136353      -0.00830924
Al      11.50676009       6.58465283      19.36996328        2       0.00118753       0.00016646      -0.00460083
Al       4.33783622       9.04919200      19.38089135        2      -0.00088102       0.00327989       0.00645244
Al       7.21075590       9.07275647      19.34661982        2      -0.00131881       0.00506899      -0.00542306
Al      10.06792626       9.04858168      19.41226916        2      -0.00039844       0.00198802      -0.00330542
Al      12.93611823       9.05383456      19.53419108        2      -0.00077672      -0.00105043      -0.00233896
Al      -0.15363661      -0.20368435      22.03198829        1       0.00189732       0.00195336      -0.00308738
Al       2.75643215      -0.07267779      22.05631158        1       0.00194453      -0.00155328       0.00036117
Al       5.56568984      -0.01601471      21.91611432        1       0.00082158      -0.00100668      -0.00280105
Al       8.45328537      -0.00923503      21.97581730        1       0.00243807       0.00081644      -0.00254903
Al       1.42904791       2.53290766      22.09785703        1      -0.00175794       0.00112034      -0.00520942
Al       4.28516401       2.45960053      21.58195954        1      -0.00563437       0.00406976      -0.00096051
Al       7.12247552       2.47325633      21.61807600        1      -0.00066298       0.00145140      -0.00439507
Al       9.99705998       2.41021115      21.57766314        1       0.00643211       0.00381088       0.00407896
Al       2.90076423       4.92156090      21.66698218        1      -0.00876468      -0.00298948      -0.01321795
Al       5.73165550       4.91339727      21.39499055        1      -0.00412055       0.00089440       0.02151890
Al       8.51768279       4.86515289      21.58951299        1       0.00177915      -0.00053420      -0.00434601
Al      11.38062635       4.89934167      21.63483845        1      -0.00339932       0.00283901      -0.00021668
Al       4.21914196       7.37586248      21.70493147        1      -0.00212821      -0.01889777      -0.00956083
Al       7.07256056       7.39173890      21.57245006        1       0.00182387      -0.00827360      -0.00052643
Al       9.81292439       7.26598023      21.76373840        1       0.00233634       0.00102531       0.00059540
Al      12.83507833       7.33020741      22.09897394        1      -0.00588666      -0.00364632      -0.00856960
C        5.66144101       4.46444371      24.79373047        0       0.04168065       0.02978421      -0.02137795
N        6.57108407       3.53388348      25.10171303        0      -0.01404694       0.06302395      -0.01992047
C        7.72400775       4.25645734      25.25983614        0      -0.00396579       0.02053173       0.02535063
N        7.59004940       5.57575570      25.04943034        0      -0.05070493      -0.06838755      -0.01285180
N        6.25214040       5.69677534      24.79541208        0       0.01130176      -0.05622679       0.00892287
H        4.63552538       4.29259090      24.47296445        0       0.01079544       0.00607693       0.03685233
H        8.68621077       3.81410845      25.52182229        0      -0.05778232       0.02351343      -0.03292309
H        5.88564071       6.51800792      24.31061202        0       0.00701341      -0.01188060       0.02372634
