104
Lattice="11.45512985522207 0.0 0.0 5.727564927611035 9.92043345827187 0.0 0.0 0.0 31.691342951089922" Properties=species:S:1:pos:R:3:tags:I:1:forces:R:3 energy=-420.159423828125 free_energy=-420.159423828125 stress="0.004297364968806505 3.702007234096527e-07 -3.2223761081695557e-07 3.702007234096527e-07 0.004368836525827646 2.291053533554077e-06 -3.2223761081695557e-07 2.291053533554077e-06 0.004635386634618044" pbc="T T F"
Al       1.42384988       0.83669224      10.01319151        6       0.00041323       0.00036960      -0.00546023
Al       4.28795913       0.83516942      10.01576385        6       0.00045430       0.00037239      -0.00438653
Al       7.15166873       0.83544998      10.01958590        6       0.00038405       0.00038003      -0.00412489
Al      10.01476152       0.83710623      10.01625557        6       0.00030341       0.00039807      -0.00530150
Al       2.85470146       3.31747348      10.01796927        6       0.00042303       0.00029902      -0.00520718
Al       5.71910155       3.31561454      10.01640555        6       0.00050707       0.00037787      -0.00446980
Al       8.58358426       3.31587936      10.01670331        6       0.00024457       0.00043604      -0.00498453
Al      11.44698950       3.31746001      10.01742223        6       0.00032033       0.00028538      -0.00570861
Al       4.28606345       5.79921958      10.02570207        6       0.00042490       0.00008880      -0.00467711
Al       7.15066287       5.79861435      10.02196200        6       0.00035957       0.00004062      -0.00491193
Al      10.01549689       5.79852750      10.02482456        6       0.00026514       0.00003749      -0.00482231
Al      12.87838549       5.79930780      10.02944932        6       0.00027222       0.00014962      -0.00520143
Al       5.71861378       8.27924450      10.02201234        6       0.00042985      -0.00002724      -0.00528948
Al       8.58392176       8.27840111      10.01993528        6       0.00035320      -0.00002992      -0.00492686
Al      11.44777069       8.27853253      10.02882482        6       0.00044591       0.00013225      -0.00447172
Al      14.30990988       8.27929818      10.02910570        6       0.00028217       0.00010073      -0.00475956
Al       0.01918719       1.65202957      12.37253933        5      -0.00005154       0.00098898      -0.00316679
Al       2.87783943       1.65078992      12.37358395        5       0.00257301       0.00098581      -0.00155386
Al       5.74165830       1.64648930      12.37111541        5       0.00105673       0.00108538       0.00180835
Al       8.61276355       1.64716187      12.37240607        5      -0.00139599       0.00162644       0.00094085
Al       1.44854913       4.13435076      12.37558962        5       0.00105393      -0.00001983       0.00123787
Al       4.30811726       4.13406198      12.36905812        5       0.00185793      -0.00037839       0.00256963
Al       7.17871375       4.13273723      12.36346162        5       0.00008250       0.00002154       0.00216835
Al      10.04629187       4.13475275      12.36967961        5      -0.00068065       0.00001457       0.00142232
Al       2.87816876       6.61633357      12.38784845        5       0.00143471       0.00019560       0.00457017
Al       5.74428374       6.62116985      12.37452721        5       0.00084145      -0.00197971       0.00455423
Al       8.61150083       6.61961207      12.37487307        5       0.00037440      -0.00110532       0.00336429
Al      11.47559306       6.61543331      12.38552062        5      -0.00026909       0.00067059       0.00506740
Al       4.31473612       9.09539145      12.38025848        5      -0.00096982      -0.00030937       0.00399747
Al       7.17689672       9.09471950      12.37685662        5       0.00119178       0.00017254       0.00090062
Al      10.03766866       9.09276809      12.37786563        5       0.00214912       0.00058845       0.00518386
Al      12.90503446       9.09042788      12.38775790        5      -0.00030319       0.00155608       0.00594904
Al       0.02099851      -0.00510882      14.65590319        4       0.00070163       0.00031444      -0.00143871
Al       2.88131991      -0.00541345      14.66026611        4       0.00055152       0.00030528      -0.00174013
Al       5.74115926      -0.01224961      14.67848704        4       0.00023790      -0.00047543      -0.00470442
Al       8.61478175      -0.01188631      14.67780784        4      -0.00035242      -0.00079542      -0.00530718
Al       1.44897406       2.47056300      14.64822639        4       0.00093085      -0.00013412      -0.00185705
Al       4.30848033       2.46558609      14.65776005        4      -0.00216484      -0.00342220      -0.01786972
Al       7.17903515       2.46218764      14.64790330        4      -0.00309069      -0.00315453      -0.02698560
Al      10.04762505       2.46725660      14.65061273        4       0.00150219      -0.00115246      -0.00772092
Al       2.87597296       4.95212545      14.66523454        4       0.00048303       0.00107547      -0.00644903
Al       5.74148536       4.95258032      14.64696152        4      -0.00074590       0.00306826      -0.01753491
Al       8.61704425       4.95543052      14.64831797        4      -0.00101812       0.00345783      -0.02793771
Al      11.47987560       4.95437928      14.66804916        4       0.00080746       0.00100094      -0.00830267
Al       4.30951810       7.44411414      14.67315400        4       0.00069809       0.00023343      -0.00367484
Al       7.18026863       7.44404359      14.66552907        4       0.00013971       0.00251633      -0.01140042
Al      10.04753860       7.44295885      14.67892156        4       0.00009872       0.00177948      -0.00898961
Al      12.90450604       7.43949858      14.69204503        4       0.00049656       0.00046157      -0.00223898
Al       1.43970508       0.81159628      16.98024708        3       0.00157874       0.00011027      -0.00289895
Al       4.28680032       0.79819504      16.98286724        3       0.00272594       0.00108609      -0.00053997
Al       7.16624019       0.79282466      16.95257087        3       0.00379564      -0.00245473       0.02267936
Al      10.04749475       0.79887120      16.96850442        3       0.00009972       0.00046827      -0.00066956
Al       2.86411017       3.27990441      16.94612064        3       0.00343305       0.00114355       0.00205463
Al       5.73019387       3.27925024      16.89980084        3       0.00767248       0.01476447       0.04643060
Al       8.61188774       3.28507813      16.89278453        3      -0.00327307       0.00275829       0.03748069
Al      11.47972445       3.28163346      16.94499775        3       0.00023402       0.00020056      -0.00139822
Al       4.28882085       5.79060431      16.93393009        3       0.01625981      -0.00473107       0.02707838
Al       7.17369874       5.79458801      16.89935379        3      -0.00459430      -0.01090012       0.05115372
Al      10.04956909       5.79659319      16.93403580        3      -0.00159275      -0.00256388       0.01168293
Al      12.89964578       5.78433237      16.98697741        3       0.00104804       0.00096420      -0.00221718
Al       5.73459908       8.28323505      16.96912831        3       0.00117881      -0.00670347       0.00360484
Al       8.60721832       8.28406007      16.97955940        3       0.00032559      -0.00140993      -0.00079813
Al      11.45943554       8.26595182      17.02075390        3       0.00414347       0.00371086      -0.00124931
Al      14.32822262       8.25854051      17.01493638        3       0.00009257       0.00152608      -0.00081549
Al       0.03194262       1.63229496      19.27493582        2      -0.00132951       0.00060463       0.00582716
Al       2.84604484       1.63985894      19.28614752        2       0.00149250      -0.00137113       0.00473884
Al       5.73114642       1.64502643      19.20474085        2      -0.00007039      -0.00176372       0.00722453
Al       8.60657413       1.64460053      19.18737063        2       0.00206833      -0.00274402       0.00721840
Al       1.44732954       4.11307393      19.22884849        2      -0.00079859      -0.00089682      -0.00308019
Al       4.29927840       4.12866489      19.19595206        2      -0.00358323      -0.00642674      -0.01055393
Al       7.17653093       4.12938103      19.14865743        2       0.00310396      -0.00428769       0.00159541
Al      10.04158744       4.13012610      19.15242258        2       0.00347184      -0.00449115       0.00843339
Al       2.87462857       6.62826364      19.30631657        2      -0.00114054      -0.00221709      -0.00496293
Al       5.73251062       6.62268309      19.21402339        2      -0.00043518       0.00423227      -0.01379597
Al       8.60627597       6.61326006      19.19841991        2       0.00133014       0.00100783      -0.00208524
Al      11.47695420       6.62628452      19.27787682        2       0.00067230      -0.00516267       0.00279857
Al       4.30757980       9.09430535      19.35729286        2       0.00131482       0.00101995      -0.00347002
Al       7.17279202       9.10472480      19.28246535        2       0.00086492       0.00220550      -0.00333366
Al      10.02815597       9.10128779      19.39580237        2       0.00054623       0.00038733      -0.00191105
Al      12.89759691       9.09260161      19.39279081        2       0.00032581       0.00007628      -0.00217291
Al      -0.07254151      -0.09694131      21.86660158        1      -0.00323849      -0.00168054       0.00139942
Al       2.85381097      -0.04679396      21.88622324        1      -0.00303308       0.00175884       0.00237028
Al       5.68375205       0.06083291      21.78562988        1      -0.00180971      -0.00326260       0.00232223
Al       8.53399386       0.06324154      21.78537295        1      -0.00300599      -0.00155161       0.00368356
Al       1.44403570       2.57645326      21.90121643        1      -0.00262331       0.00177892       0.00498084
Al       4.31351996       2.50312724      21.53066366        1      -0.00668864      -0.00616112       0.00483321
Al       7.16206093       2.53922648      21.51123009        1      -0.00292438      -0.00380283       0.00153115
Al      10.01558445       2.49588576      21.52588884        1       0.00831001      -0.00811977      -0.00469907
Al       2.92775701       4.95444674      21.55785309        1      -0.01260254       0.00023641       0.00113852
Al       5.74259952       4.95635883      21.41637329        1       0.00927663      -0.00832913       0.04388800
Al       8.58351673       4.92256963      21.48291430        1      -0.00352468      -0.00109228       0.00633231
Al      11.42580815       4.95409002      21.56404227        1       0.00282730      -0.00005974      -0.00382962
Al       4.28633820       7.40196848      21.71204081        1      -0.00457690       0.00267817      -0.00852205
Al       7.12684671       7.38438226      21.52038206        1       0.00381118       0.00258937       0.00926058
Al       9.91437855       7.33245187      21.73826989        1      -0.00180456      -0.00245585      -0.00082829
Al      12.88405287       7.32155470      21.96198593        1      -0.00505661      -0.00178735       0.00412910
C        5.98781457       4.05299700      24.90767181        0       0.08094995       0.00512242      -0.03171127
N        7.13344231       3.37455639      25.03023324        0      -0.03787617       0.00099222      -0.00308801
C        8.08042564       4.35795800      25.13004483        0       0.01594280       0.06641578      -0.01247956
N        7.59100682       5.60486263      25.06192514        0       0.03652156      -0.00070520       0.00236913
N        6.24571205       5.39262597      24.96278646        0      -0.04762963      -0.03128954      -0.02899009
H        5.01715135       3.61382241      24.69531926        0      -0.04140384       0.05505812       0.00555341
H        9.15466756       4.17439939      25.19265240        0      -0.07514255      -0.02029372       0.01034811
H        5.63492550       6.13195781      24.61402240        0       0.04023909      -0.03678338      -0.00019713
