104
Lattice="11.45512985522207 0.0 0.0 5.727564927611035 9.92043345827187 0.0 0.0 0.0 31.691342951089922" Properties=species:S:1:pos:R:3:tags:I:1:forces:R:3 energy=-419.890380859375 free_energy=-419.890380859375 stress="0.010130546055734158 1.2246891856193542e-07 -9.313225746154785e-09 1.2246891856193542e-07 0.010168422013521194 2.650544047355652e-06 -9.313225746154785e-09 2.650544047355652e-06 0.010456837713718414" pbc="T T F"
Al       1.44759850       0.84787078       9.84746633        6       0.00150737      -0.00018953       0.00060912
Al       4.31226956       0.84484702       9.86883217        6       0.00148285      -0.00016289       0.00061558
Al       7.17377149       0.84656225       9.89011155        6       0.00151490      -0.00020432       0.00042529
Al      10.03587651       0.84953515       9.86236463        6       0.00153938      -0.00020921       0.00046518
Al       2.87700188       3.33115381       9.87019557        6       0.00152105      -0.00020824       0.00026246
Al       5.74029799       3.32818035       9.87773698        6       0.00146806      -0.00014444       0.00028491
Al       8.60267490       3.33005239       9.86840608        6       0.00148826      -0.00015182       0.00024329
Al      11.46828402       3.33111000       9.86147702        6       0.00146802      -0.00012063       0.00018659
Al       4.30521127       5.81138079       9.91377945        6       0.00146970      -0.00016639       0.00017339
Al       7.16775457       5.80955684       9.89448782        6       0.00156640      -0.00017943       0.00029449
Al      10.03361655       5.80901380       9.89934664        6       0.00150335      -0.00009115       0.00027071
Al      12.89720869       5.81239339       9.91022406        6       0.00152057      -0.00016814       0.00025892
Al       5.73873947       8.29009017       9.88874405        6       0.00150797      -0.00025564       0.00032130
Al       8.60565164       8.28627222       9.88121720        6       0.00150544      -0.00022616       0.00058516
Al      11.46969519       8.28760228       9.91856620        6       0.00145859      -0.00024256       0.00042980
Al      14.33011475       8.29001250       9.92268067        6       0.00149429      -0.00021748       0.00031409
Al       0.06572326       1.65964487      12.29345995        5       0.00085512      -0.00169769       0.00286543
Al       2.92081388       1.65552008      12.30541205        5       0.00443753       0.00016128      -0.00480726
Al       5.79144845       1.65559578      12.31571672        5       0.00087539      -0.00012543       0.00072594
Al       8.66452942       1.65546947      12.30823330        5      -0.00129951       0.00067252       0.00379294
Al       1.49150468       4.13138348      12.30819457        5       0.00328496       0.00286621       0.00323320
Al       4.35660559       4.13632608      12.31516088        5       0.00041644      -0.00030170      -0.00449727
Al       7.22833188       4.13635182      12.31081459        5       0.00119021       0.00018912      -0.00292982
Al      10.09543604       4.13537598      12.29833314        5      -0.00002027       0.00133085       0.00506584
Al       2.92642320       6.62287202      12.35952784        5       0.00073546       0.00249579      -0.01220589
Al       5.79380859       6.62828164      12.33329711        5       0.00064185       0.00129202      -0.00964052
Al       8.66221610       6.62586110      12.33718427        5       0.00064346       0.00150316      -0.00913398
Al      11.52326556       6.62327921      12.35711604        5       0.00103981       0.00330452      -0.00941790
Al       4.36414987       9.10734854      12.32708582        5       0.00035443      -0.00075179       0.00451761
Al       7.22548672       9.10688912      12.31485060        5       0.00094627      -0.00068560       0.00090724
Al      10.08589371       9.10404914      12.34638618        5       0.00287307       0.00019739      -0.00913806
Al      12.95370088       9.10457580      12.36414041        5      -0.00021785      -0.00040667      -0.01012249
Al       0.07823313      -0.00050492      14.65128977        4      -0.00369633      -0.00156976      -0.01360245
Al       2.93675127      -0.00310121      14.64946530        4       0.00129224       0.00010662       0.00026646
Al       5.79910179      -0.00782458      14.68339307        4       0.00071579       0.00050889      -0.00119239
Al       8.66680588      -0.00615119      14.67588184        4       0.00281072       0.00018036      -0.00281191
Al       1.50467124       2.46584760      14.62464049        4       0.00092313       0.00033416       0.00018349
Al       4.35941134       2.45970612      14.62451978        4       0.00198124       0.00036274      -0.00039540
Al       7.23033511       2.45694590      14.62682544        4       0.00152671       0.00065959      -0.00027846
Al      10.10390206       2.46766407      14.62512108        4       0.00147253       0.00015540      -0.00032734
Al       2.92766238       4.95443379      14.64003918        4       0.00099300       0.00007088      -0.00009752
Al       5.79144793       4.95606966      14.59842124        4       0.00628253      -0.00260088       0.01219216
Al       8.67679559       4.95471907      14.61642638        4       0.00080511       0.00013333       0.00031692
Al      11.52974693       4.95700960      14.63413557        4       0.00201504      -0.00070334       0.00387104
Al       4.36497162       7.44378792      14.66920768        4       0.00159875       0.00087607      -0.00073362
Al       7.23553400       7.45010937      14.64240402        4       0.00165487      -0.00076121      -0.00016171
Al      10.11243882       7.45222077      14.67760936        4      -0.00172817      -0.00283163      -0.00230254
Al      12.96001201       7.45286390      14.69427152        4       0.00194971      -0.00419609      -0.00048279
Al       1.48394226       0.77689033      16.98928293        3       0.02327214       0.04451906       0.01941426
Al       4.34352197       0.78053764      17.01670906        3       0.00181619       0.00022039       0.00033539
Al       7.22181743       0.75872153      17.01120726        3      -0.01287614       0.02707277       0.01785051
Al      10.09732515       0.79514475      16.99841272        3       0.00148308      -0.00230869       0.00207427
Al       2.92614089       3.25497930      16.94093391        3      -0.02712163      -0.00888777       0.01121152
Al       5.78225799       3.25652023      16.92713605        3       0.00437865      -0.00251081       0.00044526
Al       8.67498624       3.25516641      16.92283513        3      -0.01026967      -0.00282760       0.00018642
Al      11.53374324       3.26699268      16.97870027        3       0.00891989      -0.00812782      -0.01346245
Al       4.35505774       5.75871975      16.94268757        3       0.00038092       0.00269322       0.00097754
Al       7.23518743       5.75550190      16.92682932        3      -0.00849883       0.00270247      -0.00524816
Al      10.08095613       5.77170040      16.97489733        3       0.03091521       0.00279559      -0.01084614
Al      12.94309585       5.76346103      17.00641887        3       0.00151706       0.00023350       0.00019184
Al       5.80887284       8.27015834      16.98124704        3      -0.01855913      -0.01944646      -0.00030913
Al       8.67117139       8.24981599      16.99191381        3       0.00083179       0.00113040       0.00221658
Al      11.53689304       8.24739674      17.07334257        3       0.00093677       0.00010076       0.00073338
Al      14.37770771       8.25489764      17.05233213        3       0.00309155      -0.00455931       0.00152461
Al       0.03058813       1.56271529      19.38726009        2       0.03746254       0.01350432      -0.00524816
Al       2.86199011       1.57437849      19.36291587        2      -0.00602022       0.00743409       0.00741585
Al       5.75518632       1.59372158      19.31828753        2      -0.00140993      -0.00284269      -0.00567363
Al       8.64001596       1.58130120      19.28248893        2      -0.01181133      -0.00033587       0.02544915
Al       1.48246774       4.08266257      19.29981216        2      -0.00643304      -0.01468175       0.02000002
Al       4.28538814       4.07817432      19.20168404        2       0.02006883      -0.01597801       0.01920767
Al       7.21996919       4.06382345      19.18102827        2       0.00169735       0.00806860       0.01326599
Al      10.08602519       4.07805734      19.20244277        2      -0.00051452      -0.00292207       0.02237218
Al       2.90414413       6.56650284      19.35803610        2      -0.00824107       0.00259011      -0.02165457
Al       5.77594005       6.61354589      19.21582816        2      -0.00741043      -0.02007397      -0.00193643
Al       8.63442715       6.58445860      19.26484163        2       0.00259756      -0.00980184      -0.00342140
Al      11.51527525       6.58364162      19.38733221        2       0.00150357      -0.00035074      -0.00142422
Al       4.34615776       9.03683205      19.38635978        2       0.00009447       0.01451595       0.02443367
Al       7.22523468       9.06878337      19.35972534        2      -0.00668775       0.00982081       0.00654698
Al      10.07795550       9.03884921      19.42764521        2       0.00024722       0.00371906       0.00773870
Al      12.94703025       9.04649586      19.58219960        2      -0.00737331      -0.01000091      -0.01503727
Al      -0.18709624      -0.23633310      22.10105240        1       0.01399581       0.02359619      -0.01793059
Al       2.72359602      -0.07033633      22.12386825        1       0.00396296      -0.00411720      -0.01233762
Al       5.53624769      -0.03288088      21.97273720        1       0.00238515      -0.00354041      -0.01145023
Al       8.42243460      -0.02404496      22.04426745        1       0.00639115       0.00013837      -0.01055493
Al       1.41997239       2.52959330      22.18836641        1      -0.00049853      -0.00357298      -0.02671948
Al       4.28101638       2.44926039      21.59166464        1      -0.01284297       0.00930446       0.00420354
Al       7.10630107       2.45696360      21.63555018        1       0.00309800       0.00177475      -0.00753409
Al       9.99382668       2.38313264      21.59646119        1       0.00476483       0.00598489       0.00734052
Al       2.90269548       4.91635068      21.68500821        1      -0.01615980      -0.00849935      -0.02163432
Al       5.73018098       4.90818756      21.37440493        1      -0.00965185      -0.00036263       0.03738807
Al       8.50099751       4.84829540      21.61646922        1       0.00451921      -0.00592344      -0.01222290
Al      11.37454989       4.88297271      21.63617875        1      -0.00085654       0.00311685       0.00318427
Al       4.19398196       7.38220326      21.69014684        1      -0.00284176      -0.04748510      -0.00290692
Al       7.06023296       7.39385250      21.57652514        1      -0.00195258      -0.01341615      -0.00434854
Al       9.78210713       7.23869105      21.77329728        1       0.01640637       0.01304435      -0.00194602
Al      12.81564488       7.32459068      22.17628623        1      -0.00923590      -0.00927886      -0.03391231
C        5.60089761       4.58105174      24.74823546        0       0.03059726      -0.02391235      -0.01908883
N        6.41785198       3.59003990      25.12053818        0       0.00550175       0.07166535      -0.00668911
C        7.61352315       4.22664422      25.32445576        0      -0.03008346       0.00481860       0.01760422
N        7.59860716       5.54332103      25.06203078        0      -0.07619196      -0.03908968      -0.01030254
N        6.28882125       5.75922080      24.74013400        0       0.00092160      -0.04698955       0.04052791
H        4.58145929       4.48287740      24.37741878        0       0.02008198       0.01080986       0.05977046
H        8.51817557       3.72643318      25.66900995        0      -0.03628024       0.00964805      -0.04755088
H        5.99457246       6.59512840      24.23408263        0       0.01461023       0.03900491       0.00838014
