104
Lattice="11.45512985522207 0.0 0.0 5.727564927611035 9.92043345827187 0.0 0.0 0.0 31.691342951089922" Properties=species:S:1:pos:R:3:tags:I:1:forces:R:3 energy=-420.0390930175781 free_energy=-420.0390930175781 stress="0.009836156852543354 -2.2957101464271545e-07 1.8766149878501892e-07 -2.2957101464271545e-07 0.00988287478685379 2.4242326617240906e-06 1.8766149878501892e-07 2.4242326617240906e-06 0.010147863067686558" pbc="T T F"
Al       1.50866552       0.85336857       9.85240993        6       0.00137402      -0.00000496       0.00159474
Al       4.37320559       0.85452275       9.87489505        6       0.00143994      -0.00015487       0.00156487
Al       7.23353435       0.85450265       9.89291927        6       0.00142373      -0.00014101       0.00148921
Al      10.09657250       0.85293369       9.86540708        6       0.00136020       0.00007747       0.00150426
Al       2.93898323       3.33876680       9.86343229        6       0.00134197      -0.00020477       0.00142245
Al       5.79881147       3.34005819       9.87508144        6       0.00157875      -0.00027140       0.00140916
Al       8.66120875       3.34064480       9.86151606        6       0.00150769      -0.00034694       0.00152856
Al      11.52714168       3.33972986       9.85261316        6       0.00142615      -0.00025266       0.00148954
Al       4.36467229       5.81506374       9.90336451        6       0.00152912       0.00012264       0.00134695
Al       7.22803047       5.81503980       9.88849669        6       0.00151131       0.00014254       0.00142351
Al      10.09217053       5.81651420       9.88916799        6       0.00151011      -0.00007382       0.00143759
Al      12.95776487       5.81573846       9.89481444        6       0.00143737       0.00005530       0.00142207
Al       5.79818142       8.29206083       9.89164765        6       0.00152193       0.00008191       0.00138729
Al       8.66508770       8.29040436       9.88821093        6       0.00143107       0.00017567       0.00146111
Al      11.52699949       8.28843154       9.91630545        6       0.00157846       0.00028042       0.00139135
Al      14.39197390       8.29025142       9.92189697        6       0.00126748       0.00021275       0.00136696
Al       0.12918414       1.67602023      12.29455068        5       0.00089352      -0.00177430       0.00420792
Al       2.99418647       1.67739439      12.30633977        5       0.00040319      -0.00215172       0.00158775
Al       5.85675361       1.67689549      12.32746300        5       0.00007444      -0.00247150      -0.00257019
Al       8.72013236       1.67516233      12.31116267        5       0.00000691      -0.00189068       0.00223380
Al       1.56086840       4.15240038      12.30721284        5       0.00184613       0.00014545       0.00071398
Al       4.42538782       4.15460868      12.31659734        5       0.00030488      -0.00068940       0.00087776
Al       7.29429437       4.15529319      12.31208621        5      -0.00069177      -0.00083027       0.00118238
Al      10.15543732       4.14963036      12.30761089        5      -0.00005718       0.00106977       0.00002972
Al       2.98978552       6.63743583      12.35148100        5       0.00044698       0.00103381      -0.00026697
Al       5.85601171       6.64006231      12.33513007        5       0.00094234       0.00028452      -0.00146823
Al       8.72421588       6.63847273      12.33322292        5       0.00087866       0.00053438       0.00104007
Al      11.58672271       6.63725206      12.35316605        5       0.00083826       0.00236056      -0.00407203
Al       4.42075679       9.12193487      12.33066647        5       0.00095788      -0.00119569       0.00440688
Al       7.28865887       9.12049888      12.31812246        5       0.00090351      -0.00040805       0.00409952
Al      10.15471000       9.12126250      12.34354322        5       0.00048752      -0.00150853      -0.00217895
Al      13.01308991       9.11984520      12.36779733        5       0.00034349      -0.00197636      -0.00526562
Al       0.12565064      -0.00983681      14.64295280        4       0.00355697       0.00310854       0.00093366
Al       2.99995364      -0.00342958      14.64571479        4      -0.00093168       0.00265976       0.00291579
Al       5.85671905       0.00049212      14.68833599        4       0.00130616       0.00020932       0.00096494
Al       8.72107430      -0.00452646      14.67995506        4       0.00146744       0.00033658       0.00126891
Al       1.56653709       2.47487327      14.61855204        4       0.00022346      -0.00095622       0.00126979
Al       4.42776330       2.48086419      14.64218523        4      -0.00249153      -0.00524264      -0.00348576
Al       7.29735612       2.47337398      14.63745075        4       0.00099828      -0.00041048       0.00045525
Al      10.15471794       2.46197104      14.62495805        4       0.00230729       0.00070353       0.00113549
Al       3.00180092       4.96359546      14.64215314        4      -0.01379859      -0.00910554      -0.00292006
Al       5.86477892       4.96164747      14.62880638        4       0.00042995      -0.00051381       0.00041659
Al       8.73634952       4.96128361      14.63381529        4       0.00116459      -0.00061786       0.00030375
Al      11.59541804       4.95478371      14.61848522        4      -0.00040781      -0.00028802       0.00908413
Al       4.42570552       7.45332338      14.66883605        4       0.00072620      -0.00037675       0.00075911
Al       7.29855699       7.44790750      14.65706765        4       0.00049214       0.00026119       0.00005880
Al      10.16281858       7.45468407      14.67429791        4       0.00202400      -0.00083224       0.00098997
Al      13.02622814       7.44826319      14.70729736        4       0.00027671      -0.00024658      -0.00003054
Al       1.52431350       0.75186871      16.99587544        3       0.01624634       0.00919207      -0.00795293
Al       4.39245525       0.76171437      17.01905606        3      -0.00259825      -0.00708201      -0.00830820
Al       7.26804711       0.75007257      17.03077129        3      -0.00369262      -0.00363372      -0.00396083
Al      10.15620927       0.76057600      17.02446525        3      -0.04835688      -0.01357769      -0.01130014
Al       2.94800164       3.21643816      16.96916779        3       0.00525891       0.00235672      -0.01182908
Al       5.84144608       3.22319886      16.94900037        3      -0.01407994       0.00235776      -0.00705827
Al       8.71818963       3.22175629      16.95802536        3      -0.00353007       0.00171945      -0.00465931
Al      11.56883212       3.22667096      16.96380733        3      -0.00488592       0.00264034      -0.00811232
Al       4.38022552       5.72589808      16.95084334        3       0.00175711       0.00158768      -0.00091123
Al       7.26975220       5.72934842      16.93727238        3       0.00106733       0.00029011       0.00083802
Al      10.13991225       5.73752775      16.97202381        3       0.00150896      -0.00064297      -0.00121710
Al      12.96888846       5.72524639      16.99819741        3       0.01696723       0.00402910      -0.01446661
Al       5.82209118       8.23275713      17.00407466        3       0.00203033      -0.01388878      -0.00202182
Al       8.70359250       8.22701640      17.00175518        3       0.00144952       0.00005989      -0.00054029
Al      11.58166143       8.21547384      17.07420936        3      -0.00243537       0.00247172      -0.00110905
Al      14.42856738       8.23796995      17.08412554        3      -0.00082391      -0.00522013      -0.01979808
Al       0.07111845       1.54574627      19.35656754        2       0.00692224       0.00132846       0.01041651
Al       2.88274957       1.51663913      19.36485701        2       0.00285438       0.00988185       0.00721579
Al       5.75089098       1.53475402      19.31924700        2       0.00516712       0.00189135      -0.00293610
Al       8.64728855       1.52420559      19.31004369        2      -0.00072121       0.00977181       0.02004149
Al       1.48774184       4.01578913      19.26877961        2      -0.00285769      -0.00135198       0.00211675
Al       4.33303945       4.02581268      19.21989306        2      -0.00161058      -0.00757920       0.01596206
Al       7.21635127       4.02215911      19.21585230        2       0.01029171      -0.00311745      -0.00123649
Al      10.11410007       4.02602027      19.24905884        2      -0.00308918       0.00282183      -0.00142656
Al       2.93141994       6.51563493      19.29318823        2      -0.01257137       0.00298590       0.01788163
Al       5.78188551       6.50173846      19.22788902        2      -0.00330309       0.00525792      -0.00463902
Al       8.66808205       6.52603963      19.23733191        2      -0.00213766      -0.00591077       0.01462173
Al      11.52833489       6.50444610      19.35910945        2       0.00044612      -0.00351548       0.01450200
Al       4.37354666       9.01232481      19.48357024        2      -0.00662482      -0.00828858      -0.04387104
Al       7.22471520       9.01868649      19.32925998        2       0.00037617      -0.00266848       0.02024818
Al      10.06332228       8.98022006      19.40365242        2       0.00677649       0.00125263       0.01744518
Al      12.93167421       8.98806673      19.53335759        2       0.00761850       0.00282291      -0.00767950
Al      -0.14835173      -0.28998925      21.98017332        1       0.01992113       0.04327649      -0.02162265
Al       2.71662562      -0.20660079      22.13115602        1      -0.00858586       0.00723118      -0.00979407
Al       5.53739530      -0.08158307      21.86790850        1       0.00809039      -0.00289930       0.00460882
Al       8.51601719      -0.07229175      22.04202038        1      -0.00302457      -0.00523049      -0.01508784
Al       1.40578737       2.43738272      21.98816364        1      -0.00163894      -0.00089917       0.00570713
Al       4.26853804       2.42958938      21.62799848        1      -0.00773790      -0.00204094      -0.00587201
Al       7.10065421       2.38140635      21.63504717        1       0.01646356      -0.00200948      -0.02047040
Al      10.04715676       2.34496912      21.62601391        1      -0.02819241      -0.00294815       0.00289682
Al       2.75522072       4.85263971      21.56115142        1       0.02597678      -0.00078544       0.02481724
Al       5.68925388       4.81760613      21.50696696        1      -0.00805334       0.00699652       0.01174822
Al       8.45338396       4.79994049      21.57884275        1      -0.00011550      -0.00980907      -0.00470986
Al      11.20407440       4.92498573      21.83101083        1       0.02167452      -0.02352364       0.00157106
Al       4.21740739       7.24672080      21.70688699        1      -0.01246210      -0.00668912      -0.01585021
Al       7.03242143       7.27643497      21.54299692        1      -0.01592056       0.00749778       0.00410587
Al       9.70046114       7.23199712      21.85175070        1       0.02022495       0.01190449      -0.00184505
Al      12.78963344       7.29512063      21.93441101        1       0.00109662      -0.00200814      -0.00029725
C        5.12941671       5.03728625      24.88196030        0       0.07779895      -0.07447294       0.00468245
N        5.75465395       3.87340170      25.09964612        0       0.02009862       0.12051325      -0.00912828
C        7.07320439       4.23524268      25.18586314        0       0.01081648       0.02393106      -0.03395088
N        7.30806738       5.54557255      25.00927102        0      -0.10355059       0.02147111      -0.00543554
N        6.04453527       6.04994432      24.86001518        0      -0.04125854      -0.07256083       0.01204106
H        4.07052893       5.17774497      24.67250110        0       0.05335602       0.01279445       0.01161043
H        7.90179885       3.53120651      25.30237676        0      -0.10695728       0.04377980      -0.00066895
H        5.88305884       6.96188421      24.42753141        0       0.05939446      -0.06069640       0.04277220
