104
Lattice="11.45512985522207 0.0 0.0 5.727564927611035 9.92043345827187 0.0 0.0 0.0 31.691342951089922" Properties=species:S:1:pos:R:3:tags:I:1:forces:R:3 energy=-420.0285339355469 free_energy=-420.0285339355469 stress="0.0054997229017317295 4.87547367811203e-07 -2.430751919746399e-07 4.87547367811203e-07 0.005562730599194765 2.253800630569458e-06 -2.430751919746399e-07 2.253800630569458e-06 0.005817478988319635" pbc="T T F"
Al       1.42563217       0.83946112       9.96575146        6       0.00094685       0.00024889      -0.00227010
Al       4.29000903       0.83625215       9.97463160        6       0.00094450       0.00033423      -0.00205752
Al       7.15366582       0.83711507       9.98444967        6       0.00076898       0.00033691      -0.00199260
Al      10.01600637       0.84072340       9.97320893        6       0.00078765       0.00025281      -0.00225581
Al       2.85535442       3.32039862       9.97778224        6       0.00100592       0.00031474      -0.00235998
Al       5.72082935       3.31715185       9.97749440        6       0.00083088       0.00038797      -0.00192703
Al       8.58536902       3.31787357       9.97655610        6       0.00066021       0.00042516      -0.00236596
Al      11.44856741       3.32016891       9.97544884        6       0.00080863       0.00039013      -0.00274292
Al       4.28620802       5.80317809       9.99766752        6       0.00089125       0.00021357      -0.00216486
Al       7.15135253       5.80198516       9.98844506        6       0.00067444       0.00017105      -0.00237930
Al      10.01673599       5.80128657       9.99422988        6       0.00072479       0.00015316      -0.00278926
Al      12.87885358       5.80341412      10.00280685        6       0.00084124       0.00026868      -0.00300919
Al       5.71952213       8.28283128       9.98547684        6       0.00084869       0.00010505      -0.00219980
Al       8.58586939       8.28084061       9.98173696        6       0.00079738       0.00013415      -0.00226473
Al      11.45008770       8.28190410      10.00322458        6       0.00080159       0.00019832      -0.00252339
Al      14.31016212       8.28336672      10.00323466        6       0.00084862       0.00013605      -0.00230947
Al       0.02348739       1.65621803      12.34165038        5       0.00168899      -0.00210790       0.00304722
Al       2.88812363       1.65536681      12.34620330        5       0.00113116      -0.00184772       0.00086904
Al       5.74742720       1.65251163      12.35858855        5       0.00224479      -0.00229043      -0.00313336
Al       8.61428623       1.65342785      12.35255712        5       0.00126398      -0.00212784       0.00010608
Al       1.45573474       4.13487914      12.35652880        5       0.00213971       0.00027233       0.00093934
Al       4.31822446       4.13272700      12.36200486        5       0.00142101       0.00000961      -0.00294793
Al       7.18318044       4.13343047      12.35455005        5       0.00040375      -0.00055272      -0.00319656
Al      10.04871989       4.13412287      12.35382346        5       0.00116142      -0.00044245      -0.00076362
Al       2.88764812       6.61546880      12.38211808        5       0.00116623       0.00201940      -0.00136344
Al       5.75318887       6.61621763      12.37012154        5      -0.00052956       0.00157903      -0.00171494
Al       8.61324132       6.61641425      12.36384720        5       0.00268154       0.00270336      -0.00007896
Al      11.47722215       6.61482063      12.37560950        5       0.00208217       0.00326129       0.00113293
Al       4.31870474       9.09813918      12.36490843        5       0.00081169      -0.00121849       0.00195757
Al       7.18308093       9.09758039      12.35383474        5       0.00170885      -0.00022005       0.00134425
Al      10.04344819       9.09694852      12.36443927        5       0.00393700      -0.00050926       0.00192383
Al      12.90906459       9.09795868      12.38155178        5       0.00137238      -0.00110748       0.00053846
Al       0.03379081      -0.00673425      14.64497867        4       0.00077934       0.00039784       0.00004403
Al       2.89324092      -0.00773184      14.64910881        4       0.00099775       0.00040530      -0.00016287
Al       5.75138043      -0.01163194      14.67560920        4       0.00129271       0.00023898      -0.00072369
Al       8.62884741      -0.01119814      14.67395817        4       0.00030317       0.00014813      -0.00089999
Al       1.46194217       2.46618170      14.63119167        4       0.00110161       0.00009823      -0.00042592
Al       4.31871072       2.45793369      14.64909136        4       0.00185966       0.00068944      -0.00137668
Al       7.18766430       2.46038383      14.62926820        4       0.00040572       0.00053155       0.00342582
Al      10.05735622       2.46191019      14.63840009        4       0.00049322       0.00015663      -0.00152360
Al       2.88899504       4.94548298      14.65898323        4       0.00249354       0.00281121      -0.00200913
Al       5.75232413       4.94767948      14.64125737        4       0.00226842       0.00178120       0.00074107
Al       8.62668700       4.95419536      14.62995570        4      -0.00109341       0.00115857       0.00438342
Al      11.49013085       4.95022414      14.65506209        4       0.00037040       0.00142714      -0.00291005
Al       4.32850244       7.44363868      14.66651275        4      -0.00006199      -0.00062777      -0.00042182
Al       7.19323163       7.44978635      14.65750166        4       0.00069635      -0.00146731      -0.00127970
Al      10.05432843       7.44292473      14.66630717        4       0.00119582       0.00055532      -0.00046691
Al      12.91702247       7.43701556      14.67906333        4       0.00098423       0.00088274      -0.00033600
Al       1.45695237       0.80835311      16.96457442        3       0.00140089       0.00176488       0.00202474
Al       4.30583055       0.79841467      16.98710691        3       0.00104657       0.00036345       0.00064325
Al       7.18197404       0.79206669      16.98535169        3       0.00105961      -0.00029294      -0.00089015
Al      10.05851003       0.79598866      16.98016988        3       0.00162631       0.00048437       0.00028007
Al       2.89221620       3.27769184      16.94030571        3      -0.00384414      -0.00091303       0.00748978
Al       5.74572864       3.28608118      16.94958385        3       0.00031565      -0.00799217      -0.01117322
Al       8.61578363       3.27544702      16.91875991        3       0.00508376      -0.00172087      -0.00448258
Al      11.49127170       3.27368907      16.92506400        3       0.00172662       0.00130685       0.00913060
Al       4.32319276       5.78427045      16.96930869        3      -0.01380653      -0.00248063      -0.01188394
Al       7.18197480       5.79343571      16.95098932        3       0.00225020      -0.00447356      -0.01879673
Al      10.05736224       5.79764739      16.94283683        3       0.00475695      -0.00259984      -0.00013762
Al      12.91664332       5.79593191      16.96460268        3       0.00073422      -0.00475521       0.00657923
Al       5.74673963       8.27038140      16.97750417        3       0.00097711       0.00116584      -0.00019365
Al       8.61863042       8.28203554      16.98505081        3       0.00334233      -0.00019557       0.00014369
Al      11.48295531       8.28284587      17.01903166        3       0.00016328      -0.00690314       0.01407350
Al      14.34335525       8.26874351      17.01244460        3       0.00070936       0.00083053       0.00227954
Al       0.04130746       1.62312181      19.30648958        2       0.00705520       0.00263531       0.00524983
Al       2.85343503       1.62800595      19.32106142        2      -0.00061784       0.00131702       0.00820330
Al       5.73485810       1.61793869      19.23377953        2      -0.00251754       0.00277107      -0.00272002
Al       8.62202771       1.61307385      19.22760838        2       0.00102503       0.00417105       0.00463272
Al       1.45262406       4.09992050      19.20963568        2       0.00067590       0.00355338       0.02565522
Al       4.31210108       4.09490584      19.20702293        2      -0.00056924       0.00149802      -0.00316685
Al       7.19314840       4.11205613      19.15446306        2      -0.00402636       0.00358993       0.00543469
Al      10.05619365       4.10481291      19.15463784        2       0.00273654       0.00008075       0.01175422
Al       2.86734792       6.63220688      19.29787263        2       0.00315175      -0.00987894      -0.00141112
Al       5.72857492       6.61847704      19.21060104        2       0.00594544      -0.00597792       0.00137877
Al       8.61978899       6.60296700      19.19752752        2       0.00091093       0.00166217      -0.00612266
Al      11.49551249       6.61820472      19.29032885        2      -0.00534592      -0.00283740       0.00995893
Al       4.31773207       9.09424436      19.39752718        2       0.00176340       0.00019814      -0.00545863
Al       7.18065106       9.10901396      19.28285515        2       0.00332697      -0.00082330       0.01597544
Al      10.04191967       9.09872628      19.43565636        2      -0.00049005      -0.00567842      -0.00676079
Al      12.91021487       9.08253455      19.45100893        2      -0.00055475      -0.00130342       0.00008869
Al      -0.10585938      -0.12233060      21.94336096        1       0.00028335      -0.00118786       0.00181190
Al       2.82084909      -0.03709017      21.96527999        1      -0.00321656      -0.00087439       0.00136459
Al       5.65989834       0.04273594      21.85407725        1      -0.00224375      -0.00441204       0.00112656
Al       8.50080952       0.05837053      21.86123053        1      -0.00200171      -0.00466563       0.00390151
Al       1.43089480       2.60414644      22.02673084        1      -0.00245519      -0.00754831      -0.00322707
Al       4.27897890       2.46933901      21.58594580        1       0.00312831       0.01081821      -0.02103051
Al       7.14686664       2.51484097      21.49436987        1      -0.00344753       0.00232713       0.01304249
Al      10.04828538       2.46615559      21.53495099        1      -0.00973858       0.00019788       0.01301400
Al       2.88722920       4.93376401      21.51392487        1       0.00580510       0.00404882       0.01663317
Al       5.74081777       4.94721470      21.48789155        1       0.00082764       0.00126373      -0.02759105
Al       8.58186995       4.88034182      21.50787102        1      -0.00628318       0.00633701       0.00164261
Al      11.43142883       4.94413352      21.55313075        1      -0.00270386      -0.00226803       0.00080884
Al       4.23965689       7.40075620      21.66754262        1       0.00278007      -0.01361190       0.00415733
Al       7.13105751       7.40167919      21.50730747        1      -0.00568351      -0.00957106       0.01260789
Al       9.89759715       7.30577499      21.74582118        1      -0.00084303       0.00096625      -0.00110718
Al      12.84439644       7.28967721      22.07005296        1      -0.00276039       0.00483269      -0.00766646
C        5.91433893       4.16800565      24.82282367        0      -0.07027300      -0.00644098       0.00590827
N        6.98766953       3.40595904      25.04362443        0       0.04393014       0.03425327      -0.00723962
C        7.99497121       4.32246961      25.20593971        0      -0.09357197      -0.06295840       0.00491726
N        7.61377040       5.60229030      25.09306005        0       0.00229685      -0.04338650      -0.00654668
N        6.27085132       5.48045050      24.88351924        0      -0.06304929       0.05122522      -0.00973422
H        4.91724311       3.81020551      24.57481308        0       0.00272488       0.04178227      -0.00256367
H        9.02475173       4.03282781      25.38506719        0       0.10978564       0.02384374       0.01128007
H        5.71588459       6.26481941      24.54536716        0       0.02474688      -0.00420604      -0.02039428
