104
Lattice="11.45512985522207 0.0 0.0 5.727564927611035 9.92043345827187 0.0 0.0 0.0 31.691342951089922" Properties=species:S:1:pos:R:3:tags:I:1:forces:R:3 energy=-420.0724792480469 free_energy=-420.0724792480469 stress="0.009336741641163826 -3.1013041734695435e-07 9.499490261077881e-08 -3.1013041734695435e-07 0.009383970871567726 2.4782493710517883e-06 9.499490261077881e-08 2.4782493710517883e-06 0.00963896606117487" pbc="T T F"
Al       1.50608757       0.85289776       9.85768191        6       0.00080519       0.00009518       0.00222558
Al       4.37062773       0.85406843       9.87950077        6       0.00087457      -0.00004874       0.00219329
Al       7.23103495       0.85409126       9.89711935        6       0.00084782      -0.00003812       0.00211602
Al      10.09410346       0.85249755       9.87038569        6       0.00078290       0.00016203       0.00214312
Al       2.93651144       3.33817787       9.86854367        6       0.00076297      -0.00007371       0.00207039
Al       5.79641842       3.33949027       9.87983748        6       0.00094877      -0.00017235       0.00211349
Al       8.65878615       3.34008058       9.86664270        6       0.00091955      -0.00024390       0.00216782
Al      11.52470415       3.33911763       9.85812781        6       0.00085274      -0.00012611       0.00211919
Al       4.36238601       5.81454752       9.90736347        6       0.00093688       0.00023742       0.00202143
Al       7.22564965       5.81453654       9.89295061        6       0.00093338       0.00024036       0.00208372
Al      10.08975593       5.81598107       9.89361531        6       0.00093468       0.00004669       0.00210257
Al      12.95538474       5.81519985       9.89909362        6       0.00086917       0.00017425       0.00211073
Al       5.79578390       8.29168217       9.89594496        6       0.00094393       0.00017384       0.00207259
Al       8.66257479       8.29005787       9.89251449        6       0.00087267       0.00026708       0.00212836
Al      11.52456512       8.28813396       9.91993555        6       0.00098812       0.00036989       0.00208299
Al      14.38956596       8.28990984       9.92548354        6       0.00069622       0.00030136       0.00204032
Al       0.12674322       1.67502214      12.29630204        5       0.00022825      -0.00168640       0.00467839
Al       2.99054840       1.67589051      12.30674024        5       0.00014630      -0.00159487       0.00323484
Al       5.85415179       1.67543262      12.32862539        5      -0.00096308      -0.00251510      -0.00264731
Al       8.71791249       1.67427376      12.31331739        5      -0.00070968      -0.00221470       0.00221834
Al       1.55842363       4.15190009      12.31022414        5       0.00094978       0.00038566       0.00055741
Al       4.42237582       4.15358870      12.31864399        5      -0.00060880      -0.00061115      -0.00014196
Al       7.29059487       4.15344959      12.31509554        5      -0.00114650      -0.00056140      -0.00161330
Al      10.15293452       4.14997357      12.30935331        5      -0.00045605       0.00108907      -0.00114806
Al       2.98710933       6.63841057      12.35422688        5      -0.00035652       0.00019933      -0.00069600
Al       5.85355056       6.63944490      12.33898501        5      -0.00007915       0.00029350      -0.00459702
Al       8.72180917       6.63820545      12.33689325        5       0.00024014       0.00056956      -0.00105347
Al      11.58390268       6.63902336      12.35609035        5       0.00032257       0.00084148      -0.00442158
Al       4.41840314       9.12069641      12.33451096        5       0.00019266      -0.00107186       0.00384606
Al       7.28612209       9.12026234      12.32107036        5       0.00018916      -0.00069440       0.00386907
Al      10.15210404       9.12011901      12.34509493        5      -0.00063336      -0.00126437      -0.00145736
Al      13.00941726       9.11876818      12.36813381        5       0.00057276      -0.00167410      -0.00443971
Al       0.12420545      -0.00812310      14.64542826        4       0.00150599       0.00210999       0.00110549
Al       2.99645031      -0.00251237      14.64870683        4      -0.00018454       0.00122326       0.00220034
Al       5.85386668      -0.00004418      14.68917087        4       0.00067070      -0.00016907      -0.00005703
Al       8.71786385      -0.00508118      14.68058246        4       0.00094903       0.00047856       0.00180777
Al       1.56247405       2.47481862      14.62247704        4      -0.00033982      -0.00132831       0.00083321
Al       4.42386488       2.47916591      14.64129839        4      -0.00296492      -0.00628718      -0.00653960
Al       7.29441466       2.47213459      14.63662370        4      -0.00065363      -0.00173331      -0.00164937
Al      10.15489573       2.46394122      14.62456237        4       0.00102293       0.00024014       0.00153484
Al       2.99448235       4.96204612      14.64222303        4      -0.00568267      -0.00454362      -0.00217973
Al       5.86127606       4.96116692      14.62674098        4      -0.00003134      -0.00043868       0.00116070
Al       8.73440115       4.96002063      14.63176068        4       0.00043686      -0.00007386       0.00123554
Al      11.59283710       4.95492835      14.62330961        4      -0.00092552       0.00035037       0.00659758
Al       4.42177969       7.45347621      14.67153674        4      -0.00084104      -0.00176838      -0.00122610
Al       7.29525425       7.44759493      14.65635839        4      -0.00040403      -0.00004524      -0.00086196
Al      10.16119094       7.45442807      14.67868742        4       0.00147533      -0.00151505       0.00005223
Al      13.02233579       7.44864443      14.71183470        4      -0.00376355      -0.00209840      -0.01104644
Al       1.51935790       0.75402268      16.98894964        3       0.01461463       0.00664944       0.00120726
Al       4.39219898       0.76238295      17.01286668        3      -0.00771485      -0.00867249      -0.00280478
Al       7.25932907       0.74742598      17.02563418        3       0.00062207       0.00019367       0.00160492
Al      10.14000877       0.75851095      17.02735898        3      -0.01704924      -0.00591416      -0.00936351
Al       2.95025718       3.21819313      16.95766246        3       0.00076904       0.00072574       0.00155230
Al       5.83581330       3.22691781      16.94254734        3      -0.00179864       0.00076218       0.00124397
Al       8.71043342       3.22253384      16.93916612        3      -0.00064588       0.00162226       0.00362083
Al      11.56291857       3.22671735      16.95642723        3      -0.00031239       0.00125416       0.00004509
Al       4.38460211       5.72760714      16.94570323        3       0.00017947       0.00117769       0.00168932
Al       7.26619607       5.73192186      16.93675401        3       0.00056688       0.00017980       0.00148615
Al      10.13619288       5.74110189      16.96826915        3       0.00173242      -0.00085423       0.00026773
Al      12.97160496       5.73327563      16.99077337        3       0.00888683      -0.00195321      -0.00094784
Al       5.82293456       8.23557121      16.99045415        3      -0.00011828      -0.01487165       0.01161332
Al       8.70069941       8.22284739      16.99508994        3       0.00089917       0.00095104       0.00188392
Al      11.57833336       8.21733062      17.07054949        3      -0.00203330       0.00116513       0.00221474
Al      14.42384395       8.23581399      17.07868769        3       0.00124111      -0.00111993      -0.00200078
Al       0.06910630       1.54640789      19.35251563        2       0.00541734       0.00114083       0.00123292
Al       2.88003534       1.52203622      19.35904761        2       0.00060720       0.00404688      -0.00160572
Al       5.75622872       1.54034430      19.30910839        2      -0.00108251      -0.00135235      -0.00381209
Al       8.64102223       1.53282951      19.31132490        2       0.00030013       0.00225066       0.00209443
Al       1.48496584       4.01712582      19.25971580        2      -0.00096867      -0.00043052       0.00319830
Al       4.33048118       4.02673845      19.21647980        2      -0.00100284      -0.00365996       0.00591910
Al       7.21937614       4.01958529      19.21229864        2       0.00560456       0.00231748      -0.00435802
Al      10.11522518       4.03188756      19.23229688        2      -0.00097348       0.00108296      -0.00543461
Al       2.92300479       6.51972459      19.30164245        2      -0.00604019       0.00100795       0.00196812
Al       5.77870587       6.50802805      19.22576888        2      -0.00235821       0.00243494      -0.00646907
Al       8.66586904       6.52721220      19.23431340        2      -0.00027591      -0.00227015       0.00357734
Al      11.52850316       6.50314787      19.36638089        2      -0.00065296      -0.00110942       0.00444262
Al       4.37040184       9.01238200      19.47530239        2      -0.00335513      -0.00498082      -0.02946565
Al       7.22243360       9.01917019      19.33189138        2       0.00036837      -0.00015420       0.00572506
Al      10.06620065       8.98139671      19.40830768        2       0.00205133       0.00242238       0.00371764
Al      12.93349061       8.99166662      19.53194135        2       0.00273418       0.00111520      -0.00273530
Al      -0.14269502      -0.28302597      21.97573489        1       0.00466805       0.00252970      -0.00372073
Al       2.72088287      -0.20494142      22.12378250        1      -0.00419780       0.00434284      -0.00023632
Al       5.53814808      -0.07698866      21.86546651        1       0.00834452      -0.00206877       0.00576201
Al       8.51466548      -0.06780444      22.03218215        1      -0.00009812      -0.00161213       0.00036119
Al       1.41046379       2.44377972      21.98878648        1      -0.00198351       0.00023287       0.00695982
Al       4.26591559       2.43047746      21.62082552        1      -0.00236954      -0.00178671      -0.00084963
Al       7.10810619       2.38847378      21.63118335        1       0.00306271      -0.00032555      -0.00592567
Al      10.03835946       2.34904007      21.60830508        1      -0.00469563       0.00172921       0.00297458
Al       2.76516461       4.85535552      21.56913699        1       0.00466131      -0.00055398       0.00230297
Al       5.69341337       4.82077928      21.50475597        1       0.00080228       0.00203915      -0.00521626
Al       8.45527223       4.79940782      21.58387911        1       0.00047494       0.00102781      -0.00009905
Al      11.21531863       4.92042531      21.82329438        1       0.00882926      -0.00936513       0.00313021
Al       4.21865935       7.24975286      21.71444810        1      -0.00132518       0.00165397      -0.00507223
Al       7.02956661       7.28475632      21.54210582        1      -0.00294931       0.00234375       0.00286913
Al       9.70674425       7.23701937      21.84956165        1       0.00310877       0.00360436       0.00134728
Al      12.79804290       7.29622123      21.93850404        1      -0.00008642      -0.00190779       0.00110493
C        5.15012605       5.01119278      24.88999332        0      -0.03881168      -0.00188420      -0.00559243
N        5.79185831       3.85970485      25.10255365        0       0.00084972      -0.01887646      -0.00195247
C        7.10329946       4.23817856      25.18624329        0       0.02156305      -0.00376061       0.00673636
N        7.31810951       5.55232740      25.02180198        0       0.00722470       0.00871441      -0.00314059
N        6.04927460       6.03530988      24.87346288        0      -0.01086546       0.03086364       0.00357013
H        4.09138810       5.13900000      24.68207800        0      -0.00607593       0.00943679      -0.00728257
H        7.93082469       3.54148222      25.30976786        0       0.00988137      -0.01389657      -0.00305321
H        5.89169500       6.94058927      24.43275483        0      -0.00235039       0.02709844      -0.00923010
