104
Lattice="11.45512985522207 0.0 0.0 5.727564927611035 9.92043345827187 0.0 0.0 0.0 31.691342951089922" Properties=species:S:1:pos:R:3:tags:I:1:forces:R:3 energy=-419.8107604980469 free_energy=-419.8107604980469 stress="0.007637720555067062 5.098991096019745e-07 -7.450580596923828e-09 5.098991096019745e-07 0.007687411271035671 1.4421530067920685e-06 -7.450580596923828e-09 1.4421530067920685e-06 0.007826879620552063" pbc="T T F"
Al       1.60036123       0.85472311       9.92668607        6       0.00038560      -0.00049086       0.00037701
Al       4.46582832       0.85362552       9.94304620        6       0.00029438      -0.00044405       0.00031165
Al       7.32604639       0.85287114       9.94908321        6       0.00031196      -0.00041539       0.00013878
Al      10.18892273       0.85483567       9.93394291        6       0.00035363      -0.00058965       0.00020166
Al       3.03019854       3.33630815       9.92095099        6       0.00036578      -0.00051918       0.00039779
Al       5.89528197       3.33699441       9.93250034        6       0.00027444      -0.00053319       0.00016415
Al       8.75693964       3.33691040       9.92148490        6       0.00037069      -0.00057336       0.00028446
Al      11.62060071       3.33620490       9.91290831        6       0.00042149      -0.00049525       0.00050127
Al       4.46034118       5.81872445       9.94872334        6       0.00022264      -0.00076893      -0.00034576
Al       7.32539026       5.82033786       9.94636917        6       0.00029404      -0.00073617      -0.00040125
Al      10.18812455       5.81820508       9.94414583        6       0.00045119      -0.00056110       0.00000753
Al      13.05132734       5.81763676       9.94298643        6       0.00030019      -0.00061297       0.00018219
Al       5.89407269       8.29637147       9.95647805        6       0.00026516      -0.00054713      -0.00047288
Al       8.75932660       8.29797312       9.95975399        6       0.00043341      -0.00061752      -0.00002825
Al      11.62200701       8.29666876       9.97031724        6       0.00027332      -0.00072257       0.00002510
Al      14.48193332       8.29616559       9.97283703        6       0.00030175      -0.00075432      -0.00059544
Al       0.18867811       1.64671174      12.33981390        5      -0.00023900       0.00032682      -0.00061909
Al       3.05115179       1.64471148      12.34429905        5      -0.00120532       0.00040939       0.00243457
Al       5.91160237       1.64222484      12.35689059        5       0.00076679      -0.00014377       0.00149476
Al       8.77940916       1.64582469      12.35006445        5       0.00059563       0.00043250      -0.00164252
Al       1.61650658       4.12531373      12.34124638        5      -0.00078635      -0.00215836      -0.00119114
Al       4.47662034       4.12102645      12.34164469        5       0.00004548      -0.00056665      -0.00027591
Al       7.34584830       4.12040166      12.33776385        5       0.00144445       0.00060649       0.00172368
Al      10.21542291       4.12536567      12.33974863        5      -0.00091070      -0.00204351      -0.00265629
Al       3.04156018       6.60488207      12.36120236        5       0.00100748      -0.00069253      -0.00112716
Al       5.91164925       6.60531872      12.34075484        5       0.00175930      -0.00068978       0.00562504
Al       8.79153608       6.61007546      12.35150936        5      -0.00280973      -0.00206356       0.00379100
Al      11.64206586       6.60908380      12.37209681        5       0.00000986      -0.00234480      -0.00180894
Al       4.48229989       9.08797842      12.35773919        5       0.00007455       0.00066488      -0.00092175
Al       7.35283765       9.09220219      12.35586750        5      -0.00110765      -0.00093807       0.00213391
Al      10.21290779       9.09056230      12.38275623        5       0.00011945      -0.00083731      -0.00016807
Al      13.07049365       9.08859817      12.37926867        5       0.00005353      -0.00036296       0.00086246
Al       0.17270590      -0.03261380      14.65320568        4       0.00071808      -0.00025597       0.00102045
Al       3.04462506      -0.03048896      14.68538833        4      -0.00141933      -0.00174580      -0.00213604
Al       5.91013227      -0.04025496      14.70776000        4      -0.00096179      -0.00081573       0.00030166
Al       8.77078923      -0.02609271      14.66779727        4      -0.00044109      -0.00178239       0.00178962
Al       1.60785115       2.44630541      14.65080893        4      -0.00058788      -0.00140221      -0.00011137
Al       4.46903710       2.43921914      14.65736981        4      -0.00138401      -0.00280923      -0.00121551
Al       7.33740247       2.43686688      14.65512353        4       0.00021127      -0.00050606       0.00057772
Al      10.20244838       2.45162798      14.65332926        4       0.00001634      -0.00254562      -0.00036674
Al       3.03009666       4.92400498      14.65454573        4      -0.00194380      -0.00442192      -0.00512500
Al       5.89831889       4.91714308      14.63758447        4       0.00051469      -0.00047446       0.00012890
Al       8.77013940       4.91988235      14.64053554        4       0.00053261      -0.00035633       0.00066056
Al      11.62913097       4.92532975      14.66291345        4      -0.00345297      -0.00387539      -0.00550102
Al       4.46361032       7.40510174      14.64998185        4       0.00050209      -0.00016456       0.00081702
Al       7.34224869       7.39759484      14.64028817        4       0.00042391       0.00150771       0.00185986
Al      10.20136214       7.41099857      14.69473355        4       0.00143044      -0.00020153       0.00097935
Al      13.05663063       7.40917642      14.68789369        4      -0.00060897      -0.00024360       0.00086727
Al       1.55549711       0.73701209      16.98720784        3      -0.00022767      -0.00157613       0.00069328
Al       4.41465621       0.71283104      17.03600423        3       0.00203794      -0.00268402      -0.00111441
Al       7.28893220       0.71290314      17.02759219        3      -0.00050899      -0.00201220       0.00007969
Al      10.15033056       0.72985642      16.99946838        3       0.00061277      -0.00050822       0.00082593
Al       2.97954224       3.19108064      16.97643672        3      -0.00052434      -0.00107320      -0.00047686
Al       5.85148399       3.18068958      16.95317550        3       0.00046609      -0.00008474       0.00109353
Al       8.72522045       3.18913116      16.97551783        3       0.00060017      -0.00063604      -0.00063105
Al      11.57690925       3.18947288      16.99632264        3       0.00257940      -0.00005791      -0.01099475
Al       4.41157628       5.67565524      16.94154060        3       0.00002055      -0.00060619      -0.00026993
Al       7.31036720       5.69184116      16.92908440        3      -0.00955763      -0.00564093       0.00180454
Al      10.15071838       5.68225212      16.99428417        3       0.00668050       0.00115824      -0.00200253
Al      12.99284544       5.66418817      16.97255491        3       0.00322494       0.00871024       0.01570952
Al       5.86761851       8.17137547      16.95073384        3      -0.00072714       0.00047371       0.00020192
Al       8.74434908       8.18296057      17.00527587        3       0.00043565       0.00000511       0.00096207
Al      11.58922057       8.16894883      17.10919509        3      -0.00082000      -0.00090167      -0.00656285
Al      14.43529582       8.16937365      16.99922105        3      -0.00037103      -0.00054336      -0.00026315
Al       0.07813427       1.51622325      19.35792567        2      -0.00215033       0.00266539      -0.00654126
Al       2.91539690       1.47662970      19.32096807        2       0.00390533       0.00181045       0.00116798
Al       5.78852034       1.47757728      19.31836092        2       0.00061754       0.00270824       0.00078402
Al       8.65868472       1.49716691      19.33698392        2       0.00546394      -0.00006808       0.00086263
Al       1.49648881       3.93610803      19.31206043        2      -0.00279915       0.00163344      -0.00287545
Al       4.35170756       3.96711993      19.23526303        2       0.00083968      -0.00079751       0.00145045
Al       7.23867308       3.98729620      19.20323205        2      -0.00094693      -0.00043891       0.00173575
Al      10.13282841       3.96415782      19.27004165        2      -0.00062890      -0.00068933       0.00040997
Al       2.90841127       6.45161011      19.25151777        2      -0.00058646      -0.00000007      -0.00339306
Al       5.79538780       6.45688552      19.18267251        2      -0.00035985       0.00241925       0.00534611
Al       8.67438136       6.49134801      19.24086250        2       0.00232905      -0.00198344      -0.00573113
Al      11.51577981       6.42080539      19.36715736        2       0.00161390       0.00042874      -0.00248376
Al       4.37781814       8.95518076      19.26060280        2       0.00229480      -0.00088415      -0.00325308
Al       7.23645200       8.97488180      19.25972572        2      -0.00020196       0.00275132      -0.00159316
Al      10.11672692       8.94038061      19.52516768        2      -0.00056548      -0.00199719      -0.00067519
Al      12.99433216       8.96135450      19.47342318        2      -0.00487303       0.00211994      -0.00923189
Al      -0.07867890      -0.14256608      21.62733846        1      -0.00319122       0.00165658       0.00554000
Al       2.63971748      -0.20089598      22.06643211        1      -0.00128928      -0.00281441      -0.00180324
Al       5.63885558      -0.17939557      22.11543413        1      -0.00121430       0.00205614      -0.00017867
Al       8.56332340      -0.28688186      22.09046252        1      -0.00039160      -0.00372767       0.00381531
Al       1.40274859       2.32893685      22.12203193        1       0.00381295       0.00431049      -0.00545494
Al       4.26921858       2.30582808      21.61410215        1      -0.00282892       0.00290500       0.00156180
Al       7.09385141       2.31260271      21.61289962        1       0.00123402      -0.00092835      -0.00006197
Al       9.86280930       2.31293863      21.78587837        1       0.00356282      -0.00122267       0.00345110
Al       2.86603217       4.77486972      21.54817886        1      -0.00258141       0.00267511       0.00325181
Al       5.70905912       4.78488298      21.51037879        1      -0.00007790       0.00106064      -0.00486703
Al       8.50382945       4.78412448      21.53717570        1       0.00373387      -0.00072492       0.00261234
Al      11.39129926       4.84714759      22.09805579        1       0.00354460       0.00485181      -0.00216469
Al       4.25977347       7.24454274      21.51259159        1       0.00418001       0.00581600      -0.00039658
Al       7.04396145       7.26706128      21.51559972        1       0.00001996      -0.00024036       0.00175070
Al       9.74506265       7.22017866      21.93016002        1       0.00272753       0.00071922      -0.00165453
Al      12.80854112       7.24961503      21.69044822        1       0.00038418       0.00229818       0.00053775
C        4.62047256       5.58471329      24.75715798        0      -0.02132644       0.01717664       0.00169040
N        5.09313757       4.33741197      24.81164487        0      -0.00726519      -0.01709377       0.00487828
C        6.44766056       4.51300641      24.92347487        0       0.01860708      -0.01968734       0.00911969
N        6.84576456       5.79086740      24.90866195        0       0.01086481       0.01446520      -0.00099375
N        5.65697741       6.46601545      24.83717056        0      -0.00143815       0.01573944       0.00291879
H        3.59102173       5.88780772      24.58479744        0      -0.01009219      -0.00198668      -0.00197960
H        7.16404810       3.69179590      24.94231102        0      -0.00322062       0.00333135       0.00458996
H        5.63745241       7.41627884      24.46913403        0      -0.00331874       0.00552955      -0.00414459
