104
Lattice="11.45512985522207 0.0 0.0 5.727564927611035 9.92043345827187 0.0 0.0 0.0 31.691342951089922" Properties=species:S:1:pos:R:3:tags:I:1:forces:R:3 energy=-420.0618896484375 free_energy=-420.0618896484375 stress="0.008795017376542091 -2.1047890186309814e-07 5.774199962615967e-08 -2.1047890186309814e-07 0.008847670629620552 2.4884939193725586e-06 5.774199962615967e-08 2.4884939193725586e-06 0.009115561842918396" pbc="T T F"
Al       1.52151107       0.85447619       9.87912809        6       0.00064036      -0.00018864       0.00163296
Al       4.38622973       0.85577551       9.90007847        6       0.00069622      -0.00020664       0.00129006
Al       7.24635472       0.85547480       9.91590335        6       0.00068996      -0.00021953       0.00090787
Al      10.10933486       0.85399586       9.89041482        6       0.00069477      -0.00014172       0.00149428
Al       2.95193031       3.33922975       9.88582165        6       0.00062125      -0.00030636       0.00137698
Al       5.81217043       3.34097377       9.89764747        6       0.00076621      -0.00032544       0.00112108
Al       8.67459882       3.34077801       9.88421575        6       0.00072190      -0.00032756       0.00128365
Al      11.53994146       3.34019266       9.87563469        6       0.00075309      -0.00046075       0.00144931
Al       4.37819134       5.81647103       9.92195599        6       0.00079218       0.00000939       0.00116994
Al       7.24172348       5.81692633       9.90928978        6       0.00079024       0.00003052       0.00135209
Al      10.10552244       5.81777845       9.90910790        6       0.00080228      -0.00010419       0.00136515
Al      12.97104710       5.81683957       9.91325731        6       0.00077295      -0.00010170       0.00132809
Al       5.81167757       8.29301758       9.91454889        6       0.00075324      -0.00004494       0.00144857
Al       8.67796071       8.29248624       9.91256244        6       0.00072168       0.00002459       0.00140059
Al      11.54014162       8.29036861       9.93637456        6       0.00080847       0.00015927       0.00101778
Al      14.40458099       8.29160975       9.94173100        6       0.00064148       0.00000976       0.00110452
Al       0.13722395       1.67173518      12.31307283        5       0.00072015      -0.00171762      -0.00985822
Al       3.00203514       1.67518827      12.31545079        5      -0.00120322      -0.00322638      -0.00282237
Al       5.86402138       1.67132288      12.32408230        5      -0.00044189      -0.00031385       0.00296995
Al       8.72268389       1.67019652      12.32010559        5       0.00204854      -0.00195742      -0.00318147
Al       1.57293328       4.15086492      12.31571899        5      -0.00373236      -0.00018275      -0.00586281
Al       4.43462735       4.15305653      12.31494699        5      -0.00025616       0.00012558       0.00562688
Al       7.29754722       4.15270958      12.31203220        5       0.00032246       0.00054243       0.00617606
Al      10.15485727       4.15197980      12.30709267        5       0.00387676      -0.00023883       0.00315962
Al       2.99767051       6.63993336      12.35392526        5       0.00112824      -0.00357350      -0.00025292
Al       5.86431491       6.64114383      12.33297881        5       0.00068933      -0.00143914       0.00610757
Al       8.73268368       6.63755273      12.34212177        5      -0.00035730       0.00014597       0.00121825
Al      11.59610960       6.64629930      12.34540708        5      -0.00187876      -0.00796605       0.00319699
Al       4.42841613       9.11851950      12.35004242        5       0.00146940      -0.00129750      -0.00543908
Al       7.29612511       9.11765403      12.33189122        5       0.00045311      -0.00083869      -0.00121386
Al      10.16465379       9.11519075      12.33573491        5      -0.00252173       0.00010431       0.00695954
Al      13.01984298       9.11243215      12.35564529        5       0.00177796       0.00125669       0.00448659
Al       0.14261581      -0.00380977      14.64658761        4       0.00046440       0.00065225       0.00279677
Al       3.00587823      -0.00106088      14.64053617        4      -0.00042147      -0.00050528       0.00236283
Al       5.86229937      -0.00308629      14.66933737        4       0.00102114      -0.00020183       0.00176029
Al       8.73002491      -0.00798726      14.67232852        4       0.00035499       0.00024252       0.00159476
Al       1.57289683       2.47046233      14.62200283        4      -0.00088303      -0.00099300       0.00206438
Al       4.43054886       2.46640537      14.62558106        4       0.00059006       0.00051303       0.00213354
Al       7.30117857       2.46939224      14.62556270        4       0.00049186      -0.00027520       0.00168781
Al      10.16873197       2.45611988      14.60446851        4      -0.00107793       0.00327370       0.01082930
Al       2.99425506       4.94837732      14.63154076        4       0.00082889       0.00000477       0.00157907
Al       5.87123378       4.96152652      14.62951502        4      -0.00069171      -0.00144548      -0.00006328
Al       8.74419150       4.95603048      14.63033118        4       0.00030095       0.00003112       0.00157167
Al      11.59957606       4.95202053      14.61732969        4      -0.00260144      -0.00002620       0.00718866
Al       4.43105683       7.44926725      14.66552984        4       0.00012473      -0.00113111       0.00078458
Al       7.30361185       7.45061342      14.65318930        4       0.00043783      -0.00160352       0.00081579
Al      10.17841962       7.45175364      14.67793317        4      -0.00215683      -0.00377171      -0.00161680
Al      13.02617547       7.44453450      14.69096517        4       0.00061301       0.00018472       0.00162692
Al       1.53980358       0.75857681      17.00177022        3      -0.01771174      -0.01043982      -0.01725393
Al       4.38664799       0.73554012      16.99688721        3       0.00100202       0.00183423       0.00258102
Al       7.25638718       0.73584625      17.02211354        3       0.00099084       0.00021491      -0.00466017
Al      10.12136792       0.74246676      17.01715737        3       0.02176417       0.01613956      -0.00242633
Al       2.94388288       3.20672514      16.96593705        3       0.01742964       0.01066840      -0.01987564
Al       5.83714344       3.21572334      16.93309408        3      -0.01233516      -0.00039456      -0.00162111
Al       8.71972841       3.21824627      16.94128703        3      -0.00887793      -0.00377343      -0.00590097
Al      11.55486971       3.23085660      16.95625175        3       0.00321277      -0.01372455      -0.01321713
Al       4.38558891       5.71479827      16.93222852        3       0.00073818       0.00095276       0.00271391
Al       7.27287245       5.71988725      16.95182268        3       0.00278117       0.00371764      -0.01397244
Al      10.14704185       5.72453339      16.97062031        3      -0.00004971       0.00438636      -0.00077526
Al      12.98923098       5.72814693      16.97315043        3       0.00046190      -0.00002519       0.00174229
Al       5.83736667       8.22554525      16.98700377        3       0.00093807      -0.00067923       0.00175090
Al       8.71040354       8.21615601      16.98973427        3      -0.00264549      -0.00291898       0.01073476
Al      11.56995104       8.20646712      17.06980051        3       0.00065393       0.00021409       0.00162645
Al      14.42913491       8.22604635      17.05549448        3      -0.01705353      -0.01928868      -0.02600985
Al       0.09824589       1.54661123      19.36375784        2      -0.01683648      -0.00179677       0.00313178
Al       2.88407666       1.52564300      19.34766096        2       0.01594984       0.00429987       0.02035696
Al       5.75915694       1.53222709      19.28118845        2      -0.00554296       0.00018100       0.01314027
Al       8.65349008       1.53201953      19.31410711        2       0.00298460      -0.00126299      -0.00514799
Al       1.48127273       4.01282293      19.24884988        2       0.00056706      -0.00007233       0.02412554
Al       4.32539215       4.02000280      19.22805264        2       0.00201470      -0.00183955      -0.00585388
Al       7.22925075       4.00372634      19.19611683        2       0.00028940       0.00741024      -0.00132250
Al      10.11504109       4.02841478      19.22452909        2       0.00048251      -0.00055622       0.00471132
Al       2.90492260       6.51893603      19.29035234        2       0.00302470      -0.00369338       0.00426369
Al       5.78206117       6.50011660      19.20942231        2      -0.00436907       0.00163109      -0.00346735
Al       8.67092416       6.52096262      19.26320714        2      -0.00053341      -0.00251402      -0.00736072
Al      11.52261216       6.49065518      19.37255552        2       0.00201660      -0.00045765       0.00518078
Al       4.36919566       8.99417020      19.40175155        2       0.00212840       0.00000879      -0.00366672
Al       7.22822952       9.01094145      19.34780875        2       0.00027640      -0.00057276      -0.00013691
Al      10.07047205       8.97202535      19.44691703        2       0.00043958       0.00297614      -0.00289339
Al      12.94230651       8.99136108      19.50553232        2       0.00084085       0.00018953       0.00127383
Al      -0.10900968      -0.25911632      21.92091826        1       0.00004580      -0.00177296      -0.00448976
Al       2.69672699      -0.21164798      22.12088732        1       0.00182346       0.00464033       0.00013067
Al       5.58618728      -0.08308466      21.86604749        1       0.00079654      -0.00197103       0.00920353
Al       8.53450428      -0.07576413      22.02701949        1      -0.00042654      -0.00538354       0.00101009
Al       1.39354865       2.42718136      21.98899632        1       0.00205677      -0.00164253       0.00427900
Al       4.27545734       2.42830993      21.63000080        1      -0.00607880      -0.00982700      -0.00620799
Al       7.12312577       2.36935509      21.58791470        1      -0.00661366       0.00289267      -0.00020898
Al      10.00335918       2.32259693      21.65649289        1       0.00045191       0.00849984      -0.00389433
Al       2.78156884       4.85631491      21.57660979        1       0.00223546      -0.00602812      -0.00054413
Al       5.68975122       4.81248995      21.50948405        1      -0.00234964       0.00453580       0.00145707
Al       8.43761192       4.78823313      21.57295666        1       0.00859091       0.00535220      -0.00109917
Al      11.22058368       4.89497988      21.87487865        1       0.00446019      -0.00445590       0.00047278
Al       4.21729566       7.25157396      21.69221956        1       0.00083112       0.00461495      -0.00537001
Al       7.00935511       7.26535816      21.54870251        1       0.00373013       0.00269978       0.00350378
Al       9.70729373       7.25120409      21.87918474        1       0.00321002      -0.00058249      -0.00170611
Al      12.79893342       7.28251089      21.90388622        1       0.00085863      -0.00116860      -0.00082268
C        5.06191308       5.08733436      24.90506245        0       0.03179444       0.00116174      -0.00366085
N        5.68391419       3.91624594      25.05672765        0      -0.00329640      -0.01602847       0.00178235
C        7.00485895       4.26481478      25.14336675        0      -0.02609015       0.02539144      -0.00487094
N        7.24300342       5.57911992      25.02800960        0       0.00007062       0.01324316       0.01055128
N        5.97904085       6.09767484      24.93123065        0       0.00666475       0.00093230      -0.01900547
H        4.00764853       5.24683071      24.70200322        0      -0.03614765       0.00173793      -0.00828374
H        7.81637510       3.54317687      25.23141388        0       0.00693716       0.00069458      -0.00830844
H        5.84154227       7.00925083      24.49435792        0       0.00025724       0.00947495       0.00518887
