104
Lattice="11.45512985522207 0.0 0.0 5.727564927611035 9.92043345827187 0.0 0.0 0.0 31.691342951089922" Properties=species:S:1:pos:R:3:tags:I:1:forces:R:3 energy=-418.91339111328125 free_energy=-418.91339111328125 stress="0.005713877733796835 3.7765130400657654e-07 -6.095506250858307e-07 3.7765130400657654e-07 0.00576657522469759 3.618188202381134e-06 -6.095506250858307e-07 3.618188202381134e-06 0.006187119521200657" pbc="T T F"
Al       1.43175590       0.82685836       9.99892596        6      -0.00123385       0.00001465      -0.00456395
Al       4.29553621       0.82686279       9.99892471        6      -0.00123515       0.00001979      -0.00456846
Al       7.15931906       0.82685596       9.99892125        6      -0.00123564       0.00002493      -0.00455957
Al      10.02310167       0.82685956       9.99892278        6      -0.00123817       0.00002228      -0.00455551
Al       2.86364806       3.30696598       9.99891476        6      -0.00123776       0.00002195      -0.00457058
Al       5.72742195       3.30696543       9.99891678        6      -0.00122874       0.00001971      -0.00457114
Al       8.59121277       3.30696744       9.99892089        6      -0.00123839       0.00001804      -0.00456861
Al      11.45499279       3.30696422       9.99891980        6      -0.00125039       0.00002441      -0.00456853
Al       4.29553394       5.78707767       9.99891468        6      -0.00123720       0.00002281      -0.00455678
Al       7.15931728       5.78707928       9.99891634        6      -0.00123403       0.00002489      -0.00455954
Al      10.02310088       5.78707956       9.99891757        6      -0.00123407       0.00001796      -0.00455726
Al      12.88687983       5.78707398       9.99891938        6      -0.00124965       0.00002679      -0.00455253
Al       5.72742409       8.26718649       9.99892089        6      -0.00124145       0.00002955      -0.00456099
Al       8.59121240       8.26718451       9.99892299        6      -0.00123769       0.00002940      -0.00455968
Al      11.45498960       8.26718607       9.99892069        6      -0.00123519       0.00001994      -0.00456360
Al      14.31877607       8.26718785       9.99892494        6      -0.00124946       0.00002869      -0.00454977
Al       0.00028308       1.65369652      12.34715711        5       0.00169500       0.00099692       0.04620922
Al       2.86406491       1.65371954      12.34710257        5       0.00158693       0.00104532       0.04609910
Al       5.72782557       1.65369372      12.34712080        5       0.00169355       0.00089123       0.04601805
Al       8.59161704       1.65369155      12.34713066        5       0.00172295       0.00090770       0.04591818
Al       1.43217074       4.13379976      12.34713481        5       0.00167354       0.00099699       0.04610134
Al       4.29595592       4.13383035      12.34710411        5       0.00179402       0.00104301       0.04598720
Al       7.15974085       4.13382843      12.34706461        5       0.00175418       0.00109872       0.04571013
Al      10.02348760       4.13382222      12.34711622        5       0.00153663       0.00099904       0.04585572
Al       2.86405616       6.61389881      12.34719596        5       0.00161969       0.00103947       0.04623258
Al       5.72783302       6.61391512      12.34711653        5       0.00165021       0.00111016       0.04608778
Al       8.59165685       6.61391542      12.34711634        5       0.00186694       0.00105185       0.04602047
Al      11.45538111       6.61392338      12.34716293        5       0.00160736       0.00109299       0.04590353
Al       4.29593940       9.09399509      12.34718428        5       0.00162509       0.00087379       0.04626113
Al       7.15972082       9.09399416      12.34710369        5       0.00163229       0.00092306       0.04592060
Al      10.02353393       9.09398574      12.34713721        5       0.00183803       0.00079475       0.04610607
Al      12.88728938       9.09400072      12.34715389        5       0.00166989       0.00102319       0.04603162
Al      -0.00011199       0.00017051      14.67593679        4      -0.00108445       0.00004837      -0.00198670
Al       2.86367042       0.00016889      14.67594006        4      -0.00109138       0.00004550      -0.00197427
Al       5.72745226       0.00016919      14.67593842        4      -0.00109138       0.00004539      -0.00198079
Al       8.59123457       0.00016755      14.67594127        4      -0.00108904       0.00004066      -0.00197192
Al       1.43177820       2.48027762      14.67593309        4      -0.00109060       0.00004885      -0.00201435
Al       4.29556089       2.48027647      14.67592468        4      -0.00109414       0.00004379      -0.00204202
Al       7.15934527       2.48027417      14.67592138        4      -0.00107935       0.00003652      -0.00205223
Al      10.02312873       2.48027427      14.67593123        4      -0.00107521       0.00003872      -0.00203045
Al       2.86367087       4.96038490      14.67592891        4      -0.00108956       0.00004300      -0.00202271
Al       5.72745270       4.96038714      14.67591411        4      -0.00109027       0.00005266      -0.00207962
Al       8.59123690       4.96038702      14.67592210        4      -0.00108367       0.00005016      -0.00207229
Al      11.45501882       4.96038545      14.67593639        4      -0.00108460       0.00003790      -0.00199109
Al       4.29556057       7.44049516      14.67593313        4      -0.00109422       0.00004830      -0.00199877
Al       7.15934387       7.44049582      14.67593064        4      -0.00108635       0.00005083      -0.00201824
Al      10.02312523       7.44049657      14.67593680        4      -0.00109239       0.00005310      -0.00200101
Al      12.88690892       7.44049474      14.67594126        4      -0.00109287       0.00004539      -0.00196801
Al       1.43177672       0.82687818      17.01422480        3      -0.00109179       0.00005959      -0.00192892
Al       4.29555919       0.82687876      17.01422836        3      -0.00109451       0.00005776      -0.00190758
Al       7.15934051       0.82687871      17.01423009        3      -0.00110126       0.00005735      -0.00189746
Al      10.02312254       0.82687806      17.01422668        3      -0.00110331       0.00005936      -0.00192344
Al       2.86367000       3.30698828      17.01422375        3      -0.00108121       0.00007259      -0.00194580
Al       5.72745243       3.30698920      17.01422678        3      -0.00108386       0.00007274      -0.00191861
Al       8.59122973       3.30698861      17.01422816        3      -0.00111356       0.00007446      -0.00191572
Al      11.45501294       3.30698820      17.01422928        3      -0.00110819       0.00006939      -0.00190570
Al       4.29556022       5.78709373      17.01422436        3      -0.00108520       0.00005221      -0.00191092
Al       7.15934204       5.78709255      17.01422733        3      -0.00108922       0.00004233      -0.00191513
Al      10.02312236       5.78709397      17.01422998        3      -0.00110480       0.00005288      -0.00189512
Al      12.88690463       5.78709446      17.01422843        3      -0.00110588       0.00005530      -0.00190771
Al       5.72744938       8.26719962      17.01422425        3      -0.00109850       0.00003540      -0.00193689
Al       8.59123215       8.26720087      17.01422814        3      -0.00109675       0.00004360      -0.00190877
Al      11.45501346       8.26720272      17.01422940        3      -0.00110208       0.00005251      -0.00190471
Al      14.31879595       8.26720297      17.01423008        3      -0.00110390       0.00005500      -0.00190212
Al      -0.00009786       1.65380774      19.34874280        2      -0.00056125       0.00113033      -0.02574626
Al       2.86413118       1.65405160      19.34898018        2       0.00060496       0.00263330      -0.02432305
Al       5.72760226       1.65461727      19.34852531        2       0.00032246       0.00584626      -0.02778073
Al       8.59137944       1.65452508      19.34866261        2      -0.00052883       0.00530350      -0.02720912
Al       1.43212386       4.13315060      19.34899188        2       0.00064018      -0.00407978      -0.02475626
Al       4.29613445       4.13393098      19.34939230        2       0.00271320       0.00207682      -0.02359142
Al       7.15942462       4.13381220      19.34975730        2      -0.00096040       0.00107707      -0.02007699
Al      10.02260616       4.13394500      19.34901015        2      -0.00427882       0.00189229      -0.02562295
Al       2.86438118       6.61309571      19.34982953        2       0.00189176      -0.00307035      -0.02134061
Al       5.72772801       6.61318466      19.34967280        2       0.00048646      -0.00351865      -0.02297595
Al       8.59087608       6.61304017      19.34930177        2      -0.00287821      -0.00462222      -0.02469624
Al      11.45482869       6.61295023      19.34904662        2      -0.00157967      -0.00437794      -0.02556211
Al       4.29625241       9.09399180      19.34933704        2       0.00302880       0.00154073      -0.02428763
Al       7.15951664       9.09289709      19.34869075        2      -0.00038424      -0.00425620      -0.02606035
Al      10.02258544       9.09405348      19.34881895        2      -0.00472879       0.00218437      -0.02709932
Al      12.88706731       9.09393528      19.35130139        2       0.00015133       0.00019758      -0.01202569
Al      -0.00122004      -0.00155973      21.69038359        1      -0.00572429      -0.00917024      -0.00484473
Al       2.86420943      -0.00089901      21.69063194        1       0.00234148      -0.00531963      -0.00246218
Al       5.72670975       0.00180797      21.68988356        1      -0.00214107       0.00609776      -0.00858258
Al       8.59091658       0.00126384      21.68971299        1      -0.00383082       0.00457314      -0.00759366
Al       1.43211826       2.48131382      21.68997453        1       0.00157419       0.00692151      -0.00843006
Al       4.29866509       2.48156693      21.68441961        1       0.01167330       0.00528322      -0.02337009
Al       7.16014892       2.48036420      21.68507716        1       0.00177285       0.00295449      -0.02658430
Al      10.02090755       2.48254661      21.68789558        1      -0.00647258       0.00534676      -0.00942261
Al       2.86741010       4.96141228      21.68915547        1       0.00731589       0.00250958      -0.00690523
Al       5.72601995       4.95943770      21.67048611        1      -0.00240073      -0.00126552      -0.06852582
Al       8.59135588       4.96201406      21.67778874        1      -0.00114203       0.00278177      -0.06015017
Al      11.45334688       4.96101395      21.68917184        1      -0.00589374       0.00223799      -0.00971134
Al       4.29979282       7.43645296      21.69027386        1       0.00573652      -0.00702917      -0.00540665
Al       7.15934994       7.43686817      21.68403273        1      -0.00309837      -0.01211642      -0.01923222
Al      10.02055133       7.43744970      21.68863488        1      -0.01133165      -0.01197164      -0.00909500
Al      12.88717415       7.43921942      21.69100440        1       0.00021502      -0.00727020      -0.00069440
C        6.16329468       3.86524919      24.75676306        0       0.01524519       0.02279246       0.03110355
N        7.41587400       3.40315960      24.75949449        0       0.01343649       0.06011902       0.01051297
C        8.18472293       4.54296409      24.69474018        0      -0.02139056      -0.08317662       0.03968377
N        7.48371118       5.68516840      24.62097175        0      -0.04213858      -0.10838650       0.02397961
N        6.19657316       5.22565440      24.66534268        0      -0.00948535      -0.01169416       0.02959662
H        5.25003573       3.26768579      24.77058779        0       0.08055178       0.07210404      -0.03607237
H        9.27313871       4.52141570      24.67659541        0       0.01527933       0.00046041      -0.00849100
H        5.39890642       5.85141592      24.61474512        0      -0.00620658       0.04537169      -0.03679397
