104
Lattice="11.45512985522207 0.0 0.0 5.727564927611035 9.92043345827187 0.0 0.0 0.0 31.691342951089922" Properties=species:S:1:pos:R:3:tags:I:1:forces:R:3 energy=-420.0712585449219 free_energy=-420.0712585449219 stress="0.0050279246643185616 6.062909960746765e-07 -3.1013041734695435e-07 6.062909960746765e-07 0.005089156329631805 2.248678356409073e-06 -3.1013041734695435e-07 2.248678356409073e-06 0.005336679983884096" pbc="T T F"
Al       1.42454215       0.83838886       9.98739458        6       0.00053461       0.00040805      -0.00293416
Al       4.28886429       0.83580822       9.99366429        6       0.00045922       0.00047256      -0.00249797
Al       7.15259702       0.83645033      10.00103688        6       0.00030226       0.00039475      -0.00243777
Al      10.01518996       0.83934120       9.99316783        6       0.00035219       0.00029126      -0.00308596
Al       2.85472987       3.31924569       9.99663805        6       0.00051150       0.00046641      -0.00316375
Al       5.71984086       3.31649392       9.99566490        6       0.00033576       0.00053654      -0.00282822
Al       8.58442499       3.31704174       9.99547544        6       0.00018457       0.00050476      -0.00343214
Al      11.44758487       3.31911607       9.99522001        6       0.00046291       0.00043876      -0.00376884
Al       4.28582739       5.80173949      10.01151266        6       0.00038979       0.00020496      -0.00286371
Al       7.15083624       5.80074447      10.00463759        6       0.00025210       0.00025236      -0.00326090
Al      10.01598495       5.80031642      10.00941289        6       0.00031720       0.00025344      -0.00344313
Al      12.87837090       5.80186851      10.01648448        6       0.00039240       0.00033468      -0.00355218
Al       5.71881696       8.28160553      10.00290878        6       0.00043444       0.00003160      -0.00319975
Al       8.58481503       8.28002340       9.99977365        6       0.00035741       0.00015007      -0.00293785
Al      11.44886716       8.28068647      10.01623873        6       0.00041659       0.00021379      -0.00285369
Al      14.30978926       8.28195396      10.01638486        6       0.00028165       0.00003883      -0.00309589
Al       0.02093775       1.65632247      12.35804773        5       0.00203445      -0.00371902      -0.00773775
Al       2.88293373       1.65464099      12.36137496        5       0.00224485      -0.00263688      -0.00772573
Al       5.74409812       1.65030426      12.36520532        5       0.00186288      -0.00134441      -0.00299004
Al       8.61484053       1.65167286      12.36465101        5      -0.00195973      -0.00221910      -0.00727642
Al       1.45169212       4.13403053      12.36610612        5       0.00248875       0.00105639      -0.00284346
Al       4.31292017       4.13330438      12.36451956        5       0.00213283      -0.00023645       0.00012236
Al       7.18255418       4.13326730      12.35739277        5      -0.00177389      -0.00060079       0.00064144
Al      10.04810335       4.13433927      12.36133144        5      -0.00006834       0.00019836      -0.00202037
Al       2.88308552       6.61486232      12.38541831        5       0.00136234       0.00188096       0.00042778
Al       5.74992665       6.61869025      12.37063689        5      -0.00051292      -0.00074858       0.00303409
Al       8.61227408       6.61692770      12.36748012        5       0.00128703       0.00155194       0.00234435
Al      11.47644215       6.61383719      12.37918270        5       0.00071806       0.00245983       0.00264396
Al       4.31778008       9.09786525      12.37274740        5      -0.00140776      -0.00206087      -0.00118537
Al       7.17990563       9.09579473      12.36477064        5       0.00182167       0.00082770      -0.00220075
Al      10.03931440       9.09465996      12.36912904        5       0.00388533       0.00054664       0.00292546
Al      12.90768345       9.09446050      12.38437365        5      -0.00044435       0.00013188       0.00169994
Al       0.02889276      -0.00672517      14.64520649        4       0.00067293       0.00035335       0.00110804
Al       2.88850825      -0.00745437      14.64990536        4       0.00067234       0.00042985       0.00027461
Al       5.74699040      -0.01315901      14.67333793        4       0.00070494       0.00045039      -0.00073299
Al       8.62431661      -0.01240192      14.67264921        4      -0.00091016      -0.00015972      -0.00180840
Al       1.45662677       2.46753128      14.63424628        4       0.00102464      -0.00029205       0.00039298
Al       4.31382441       2.45976666      14.64875163        4       0.00140996       0.00067450      -0.00160478
Al       7.18477808       2.45929513      14.62976715        4      -0.00050565       0.00097426       0.00192493
Al      10.05425842       2.46317561      14.64009274        4       0.00012189       0.00037209      -0.00143674
Al       2.88270790       4.94648993      14.65890246        4       0.00211789       0.00261478      -0.00219175
Al       5.74738436       4.94864493      14.63843903        4       0.00128226       0.00159536      -0.00050233
Al       8.62461573       4.95388482      14.63052476        4      -0.00181753       0.00149899       0.00179964
Al      11.48688444       4.95054471      14.65994834        4      -0.00003946       0.00210984      -0.00590637
Al       4.32072792       7.44406143      14.66591168        4       0.00025873      -0.00035447      -0.00058141
Al       7.18830963       7.44764289      14.65761681        4       0.00035126      -0.00027833      -0.00116888
Al      10.05225724       7.44255162      14.66893935        4       0.00055074       0.00085199      -0.00141153
Al      12.91210358       7.43740960      14.68190309        4       0.00058707       0.00071322      -0.00041634
Al       1.44995839       0.80875512      16.96956668        3       0.00058383       0.00064852      -0.00029384
Al       4.29639789       0.79631162      16.98303517        3       0.00254469       0.00130059       0.00186214
Al       7.17572331       0.79114318      16.97040036        3       0.00061171      -0.00021629       0.00023786
Al      10.05407317       0.79351713      16.96293360        3       0.00199629       0.00490144       0.02119064
Al       2.87944263       3.27736919      16.93666005        3       0.00213432       0.00024848       0.00756819
Al       5.74041128       3.28476680      16.92943776        3      -0.00007304      -0.00233000      -0.00029903
Al       8.61355267       3.27935196      16.90790677        3       0.00190905      -0.00044681       0.00001932
Al      11.48890991       3.27632621      16.92698487        3      -0.00212955      -0.00062781       0.00693103
Al       4.31111572       5.78662173      16.95407889        3      -0.00073218       0.00022631      -0.00047968
Al       7.17808240       5.79358610      16.93148407        3       0.00118440      -0.00103116      -0.00268918
Al      10.05464234       5.80050026      16.93082033        3       0.00124883      -0.00616488       0.01285598
Al      12.90959425       5.79046201      16.97332762        3       0.00090469       0.00066153      -0.00020093
Al       5.74209372       8.27585470      16.97288236        3       0.00047498       0.00047263      -0.00019497
Al       8.61356420       8.28477371      16.98086338        3       0.00204202      -0.00216536       0.00138009
Al      11.47129705       8.27470794      17.01376017        3       0.00473453       0.00257278       0.00961447
Al      14.33825568       8.26142835      17.00861849        3      -0.00084163       0.00464748       0.00770324
Al       0.03826898       1.62333698      19.29097761        2       0.00101745       0.00394347       0.00783251
Al       2.84812739       1.62974276      19.30132362        2       0.00290291       0.00288894       0.01316491
Al       5.73465165       1.62597624      19.22501557        2      -0.00274200       0.00186627      -0.00626510
Al       8.61529360       1.62298967      19.20864527        2       0.00232847       0.00139368       0.00209292
Al       1.45148152       4.10426415      19.20369719        2      -0.00155198       0.00282116       0.02595226
Al       4.30651720       4.10864399      19.20326388        2      -0.00047532      -0.00150808      -0.00698180
Al       7.18860890       4.11870884      19.14632768        2      -0.00416098       0.00174099       0.00581364
Al      10.05007112       4.11547225      19.14486186        2       0.00348682      -0.00145118       0.01293204
Al       2.87004202       6.63581626      19.30531083        2       0.00035599      -0.00791548      -0.00440190
Al       5.72836592       6.62394632      19.21240860        2       0.00317618      -0.00568699      -0.00528602
Al       8.61499717       6.60710148      19.20275183        2       0.00063041       0.00094515      -0.01055042
Al      11.49071451       6.62621553      19.28147247        2      -0.00346029      -0.00734492       0.01026290
Al       4.31130117       9.09139386      19.39201438        2       0.00299880       0.00381092      -0.01306293
Al       7.17682197       9.10794370      19.28067346        2       0.00209911       0.00085080       0.00668680
Al      10.03761753       9.10033994      19.42809825        2       0.00016121      -0.00196160      -0.00428772
Al      12.90553867       9.08678015      19.42851881        2      -0.00043798      -0.00048869      -0.00002262
Al      -0.09356081      -0.11339996      21.91613390        1      -0.00044383      -0.00058171       0.00210865
Al       2.83508145      -0.04190913      21.93700306        1      -0.00331529       0.00038782       0.00317406
Al       5.66964766       0.05329152      21.82848506        1      -0.00187216      -0.00569333       0.00267813
Al       8.51467564       0.06321663      21.83162832        1      -0.00292028      -0.00413736       0.00466093
Al       1.43789721       2.59473236      21.98137769        1      -0.00330173      -0.00020227       0.00293528
Al       4.29280390       2.48149114      21.56844474        1      -0.00173719       0.00214528      -0.01496308
Al       7.15365147       2.52575925      21.49451705        1      -0.00279287       0.00029171       0.00848547
Al      10.03701854       2.47680902      21.52585444        1      -0.00120228      -0.00121462       0.00503863
Al       2.90767906       4.94022094      21.52214174        1      -0.00707396       0.00294924       0.01146150
Al       5.74152125       4.95132153      21.46988332        1       0.00290679      -0.00066358      -0.01423672
Al       8.58433845       4.89490054      21.49900050        1      -0.00547275       0.00337361       0.00238372
Al      11.42913343       4.94832147      21.55480290        1      -0.00057474      -0.00058029      -0.00322060
Al       4.25657634       7.40785519      21.68693383        1       0.00017053      -0.01306056      -0.00212392
Al       7.13019107       7.39848474      21.49923429        1      -0.00254487      -0.00734834       0.02063145
Al       9.90321643       7.31500609      21.74461772        1      -0.00106656      -0.00046268      -0.00033030
Al      12.86362335       7.29907584      22.03587727        1      -0.00671681       0.00238120      -0.00476338
C        5.94370819       4.12191060      24.85617609        0       0.02198526      -0.00094858       0.00868014
N        7.04672758       3.38953858      25.04642178        0      -0.02883834       0.00855163      -0.01488328
C        8.03195207       4.33156207      25.18904606        0      -0.01139958       0.01888786      -0.01159865
N        7.60764457       5.59984821      25.08695282        0      -0.00606859      -0.00026764      -0.00346394
N        6.26326732       5.44377368      24.91115117        0       0.00431005      -0.00803738       0.00642730
H        4.94480780       3.75954386      24.62400488        0       0.01673844      -0.02438342      -0.00392206
H        9.08815054       4.09319900      25.31739247        0      -0.04848441      -0.00669803       0.00444047
H        5.66993211       6.20825277      24.59587650        0       0.04065944       0.02708048      -0.02693796
