104
Lattice="11.45512985522207 0.0 0.0 5.727564927611035 9.92043345827187 0.0 0.0 0.0 31.691342951089922" Properties=species:S:1:pos:R:3:tags:I:1:forces:R:3 energy=-420.21453857421875 free_energy=-420.21453857421875 stress="0.004606747068464756 1.4863908290863037e-06 -3.8463622331619263e-07 1.4863908290863037e-06 0.0046585192903876305 2.148095518350601e-06 -3.8463622331619263e-07 2.148095518350601e-06 0.0048659248277544975" pbc="T T F"
Al       1.42655340       0.83129111      10.01276866        6      -0.00016097       0.00077444       0.00312431
Al       4.29037331       0.83123388      10.01290584        6      -0.00006903       0.00077623       0.00351941
Al       7.15413351       0.83121799      10.01300226        6      -0.00016197       0.00072425       0.00361617
Al      10.01788101       0.83128681      10.01296105        6      -0.00022111       0.00074825       0.00324793
Al       2.85836873       3.31144457      10.01278938        6      -0.00015292       0.00092000       0.00315788
Al       5.72220098       3.31132199      10.01277839        6      -0.00014740       0.00083563       0.00331645
Al       8.58599012       3.31132879      10.01274399        6      -0.00017356       0.00082393       0.00322861
Al      11.44975210       3.31142978      10.01277361        6      -0.00015426       0.00090044       0.00297970
Al       4.29022176       5.79161008      10.01282205        6      -0.00017748       0.00096181       0.00352416
Al       7.15405512       5.79154145      10.01280265        6      -0.00016678       0.00092842       0.00335026
Al      10.01794640       5.79155228      10.01279493        6      -0.00007172       0.00097627       0.00342470
Al      12.88159719       5.79164157      10.01295433        6      -0.00013019       0.00097355       0.00356912
Al       5.72214129       8.27170492      10.01284103        6      -0.00017606       0.00085389       0.00356215
Al       8.58604843       8.27165982      10.01281057        6      -0.00006862       0.00086723       0.00355276
Al      11.44987209       8.27165451      10.01301525        6      -0.00006575       0.00090778       0.00389746
Al      14.31348883       8.27171855      10.01308087        6      -0.00017546       0.00085848       0.00378334
Al       0.00998429       1.65435189      12.39737164        5       0.00030615      -0.00259503      -0.00687571
Al       2.87346541       1.65443638      12.39769195        5       0.00005007      -0.00228867      -0.00686390
Al       5.73733054       1.65403567      12.39778923        5      -0.00001492      -0.00370035      -0.00500331
Al       8.60109698       1.65387609      12.39813621        5      -0.00045950      -0.00330586      -0.00626820
Al       1.44163629       4.13521582      12.39736012        5       0.00024004       0.00023816      -0.00319968
Al       4.30486312       4.13508434      12.39571307        5      -0.00087247      -0.00031485      -0.00303655
Al       7.16916864       4.13479140      12.39409972        5      -0.00054029      -0.00130529      -0.00387978
Al      10.03368367       4.13519176      12.39533208        5       0.00132483      -0.00012365      -0.00319576
Al       2.87304663       6.61593822      12.40163536        5      -0.00080733       0.00149072      -0.00151388
Al       5.73691445       6.61585729      12.39640624        5      -0.00095822       0.00087301      -0.00019492
Al       8.60188459       6.61591976      12.39546757        5       0.00095535       0.00164906       0.00080159
Al      11.46592671       6.61599248      12.40070772        5       0.00076727       0.00122259       0.00139588
Al       4.30514782       9.09537451      12.40151944        5      -0.00093571      -0.00121611      -0.00406262
Al       7.16951478       9.09565300      12.39860036        5       0.00010227      -0.00046395      -0.00302183
Al      10.03376036       9.09558510      12.40061180        5       0.00111216      -0.00097281      -0.00104236
Al      12.89710336       9.09508839      12.40386767        5      -0.00050075      -0.00175429      -0.00163463
Al       0.00469864       0.00129850      14.69191883        4       0.00206309      -0.00187153      -0.01220043
Al       2.86804151       0.00144332      14.69495718        4       0.00071085      -0.00213537      -0.01511635
Al       5.73191103      -0.00006538      14.70217535        4      -0.00073612      -0.00533614      -0.02160721
Al       8.59396471      -0.00087392      14.69984901        4       0.00300131      -0.00480120      -0.01908004
Al       1.43610000       2.47898193      14.68577212        4       0.00070951      -0.00132127      -0.00918333
Al       4.29884929       2.47839274      14.68356057        4      -0.00095956      -0.00263796      -0.01845091
Al       7.16380223       2.47646160      14.68435994        4      -0.00001668      -0.00402579      -0.02378213
Al      10.03011373       2.47806936      14.68005873        4       0.00248266      -0.00149895      -0.01086872
Al       2.86618846       4.96274579      14.68806395        4       0.00010078      -0.00109593      -0.01387958
Al       5.73088373       4.96198961      14.68236566        4      -0.00012858      -0.00021465      -0.02182256
Al       8.59754399       4.96160026      14.67980202        4       0.00128458       0.00049589      -0.01841116
Al      11.46164980       4.96261753      14.68937943        4       0.00220172      -0.00117083      -0.01455262
Al       4.29627119       7.44411521      14.69703138        4      -0.00019987      -0.00095186      -0.01537616
Al       7.16401798       7.44317605      14.68733999        4       0.00113232      -0.00124663      -0.01470925
Al      10.02990582       7.44421649      14.69933872        4       0.00334203      -0.00026674      -0.01769096
Al      12.88993021       7.44458435      14.70943875        4       0.00163454      -0.00161693      -0.01545733
Al       1.43104897       0.81871286      16.99061852        3      -0.00003650       0.00115492       0.00609035
Al       4.29052962       0.81815336      16.98465339        3      -0.00140033      -0.00196875       0.01079185
Al       7.15870144       0.80339585      16.98736134        3       0.00006806       0.00151322       0.00513001
Al      10.02512950       0.81630020      16.97812607        3       0.00492423       0.00041130       0.01409454
Al       2.86022804       3.29786349      16.96679598        3      -0.00265110      -0.00142226       0.01554948
Al       5.72246096       3.30169558      16.95131871        3       0.00199001      -0.00004807       0.01102339
Al       8.59574700       3.29876567      16.94554343        3       0.00178897       0.00124216       0.01560104
Al      11.45698756       3.29833163      16.97295328        3       0.00323910      -0.00085397       0.01144799
Al       4.29113724       5.78551757      16.97127676        3      -0.00041914       0.00127700       0.00594140
Al       7.15688770       5.78192346      16.96351488        3       0.00091737       0.00071937       0.00612305
Al      10.02564585       5.78424266      16.96855826        3       0.00383478       0.00176327       0.01222625
Al      12.88910298       5.78506073      16.98921051        3      -0.00017856      -0.00027610       0.01090949
Al       5.72383717       8.26486127      16.97792892        3       0.00092080       0.00353281       0.00813850
Al       8.59224963       8.26516652      16.98059361        3       0.00183011       0.00421140       0.00984913
Al      11.45894444       8.26867287      17.01808658        3      -0.00059604       0.00041502       0.00515220
Al      14.31018198       8.26528313      17.01638221        3       0.00129394       0.00017671       0.00502932
Al       0.00174836       1.65820452      19.28980876        2       0.00453358      -0.00374093      -0.00272723
Al       2.85665186       1.66019297      19.28751601        2      -0.00145626      -0.00290019       0.00093243
Al       5.72653867       1.67407382      19.21947165        2      -0.00003754      -0.00550670       0.01005018
Al       8.59407182       1.67577746      19.21942748        2       0.00150825      -0.00642380       0.00514437
Al       1.43533734       4.12071882      19.27383458        2       0.00117532       0.00212214       0.00137234
Al       4.28291262       4.13603501      19.22401596        2       0.00354814       0.00102930      -0.00014055
Al       7.17193040       4.11506764      19.22374760        2      -0.00429005       0.01093258      -0.00004107
Al      10.02894888       4.13396159      19.23576189        2       0.00024027       0.00299187      -0.00066205
Al       2.87348752       6.60728677      19.29517992        2       0.00002767       0.00288939       0.00330931
Al       5.73182648       6.63132554      19.22880454        2       0.00065003      -0.00425202       0.00201668
Al       8.59204800       6.62401506      19.22396984        2       0.00138445      -0.00378960       0.00804625
Al      11.45530394       6.60607176      19.28758941        2       0.00081083       0.00305261       0.00305561
Al       4.30959745       9.10490669      19.29328866        2      -0.00275521      -0.00258005       0.00862972
Al       7.16444649       9.09738090      19.27978049        2       0.00060968       0.00116017       0.00572385
Al      10.01194546       9.10167517      19.32260673        2       0.00326519       0.00023168       0.00314102
Al      12.88610456       9.09872839      19.33777342        2       0.00073518       0.00001405       0.00302511
Al      -0.03122447      -0.04771594      21.74361288        1      -0.00261704      -0.00273641       0.01060355
Al       2.87334334      -0.03145814      21.75711551        1      -0.00233867      -0.00065430       0.01061648
Al       5.71051063       0.04110401      21.70376665        1      -0.00200626      -0.00063854       0.00821677
Al       8.56793558       0.03748667      21.70161172        1      -0.00162467       0.00008262       0.00904262
Al       1.44089473       2.52763177      21.73878551        1      -0.00023945       0.00196600       0.01326155
Al       4.32124922       2.50413083      21.56242156        1       0.00040248       0.00079203      -0.00504188
Al       7.17000331       2.51886480      21.59531359        1      -0.00266954       0.00140217      -0.00961567
Al      10.00878850       2.50821827      21.56475335        1      -0.00223991      -0.00375535       0.00560987
Al       2.90061654       4.97262093      21.65464670        1       0.00507672      -0.00041279      -0.00670686
Al       5.74899835       4.94425572      21.50529759        1      -0.00394259       0.00431254      -0.02030934
Al       8.58672054       4.95440367      21.54169420        1      -0.00536564       0.00398297      -0.00997322
Al      11.44179582       4.96126273      21.62288737        1      -0.00485857       0.00293325      -0.00763661
Al       4.32149784       7.41279664      21.71597413        1      -0.00346992      -0.00222786       0.00052628
Al       7.14425049       7.39104060      21.63420281        1      -0.00270580      -0.00014589      -0.02168965
Al       9.96300613       7.38592756      21.70776029        1       0.00244599      -0.00042352      -0.00587032
Al      12.89364354       7.38528973      21.78387329        1      -0.00015456      -0.00246009       0.01295011
C        6.09990077       3.91556303      24.87169581        0       0.03670079       0.03910560       0.05530105
N        7.31837415       3.36717457      24.89953844        0      -0.06344368      -0.05738510      -0.04203415
C        8.16072034       4.44910961      24.88965354        0      -0.05470316       0.05831505       0.07684121
N        7.53340310       5.62899365      24.88773135        0      -0.00456488       0.09271287      -0.00547935
N        6.20611228       5.27976042      24.92946846        0       0.09630585      -0.05869091      -0.05073645
H        5.15243106       3.38562857      24.79029370        0       0.03798390       0.01923912      -0.01965619
H        9.25033731       4.39565156      24.85969378        0      -0.05388372      -0.08043420       0.00738811
H        5.52993725       5.92210964      24.51434829        0      -0.00768267       0.00647444       0.04535082
