104
Lattice="11.45512985522207 0.0 0.0 5.727564927611035 9.92043345827187 0.0 0.0 0.0 31.691342951089922" Properties=species:S:1:pos:R:3:tags:I:1:forces:R:3 energy=-419.92333984375 free_energy=-419.92333984375 stress="0.007618669420480728 6.123445928096771e-07 -1.3969838619232178e-08 6.123445928096771e-07 0.007669935002923012 1.5730038285255432e-06 -1.3969838619232178e-08 1.5730038285255432e-06 0.0078266067430377" pbc="T T F"
Al       1.58457754       0.85453481       9.92501695        6       0.00030492      -0.00030297       0.00052905
Al       4.45008944       0.85397815       9.94158365        6       0.00026199      -0.00036345       0.00040524
Al       7.31014478       0.85317487       9.94880761        6       0.00034919      -0.00037295       0.00019348
Al      10.17310348       0.85464650       9.93271988        6       0.00035419      -0.00041879       0.00034003
Al       3.01472778       3.33647640       9.92064500        6       0.00025066      -0.00036076       0.00050000
Al       5.87910484       3.33759104       9.93265207        6       0.00025596      -0.00050245       0.00013661
Al       8.74056098       3.33743934       9.92115980        6       0.00042212      -0.00048191       0.00042600
Al      11.60455697       3.33635658       9.91234892        6       0.00035996      -0.00029823       0.00068504
Al       4.44472889       5.81857074       9.94976296        6       0.00010894      -0.00065698      -0.00043371
Al       7.30911053       5.81994450       9.94604117        6       0.00031133      -0.00059665      -0.00028990
Al      10.17171401       5.81790895       9.94337424        6       0.00050612      -0.00043321       0.00016317
Al      13.03567382       5.81729182       9.94236383        6       0.00023363      -0.00043652       0.00036958
Al       5.87807442       8.29561607       9.95523438        6       0.00027757      -0.00028452      -0.00024312
Al       8.74305146       8.29712722       9.95730468        6       0.00044914      -0.00040667       0.00017509
Al      11.60605527       8.29605855       9.96862495        6       0.00028998      -0.00056714       0.00028750
Al      14.46663964       8.29558250       9.97255382        6       0.00023643      -0.00047316      -0.00045311
Al       0.17700343       1.64823871      12.33388724        5      -0.00018407       0.00172135       0.00171937
Al       3.03739221       1.64584816      12.33984819        5      -0.00054700       0.00166732       0.00256872
Al       5.90110790       1.64392556      12.35270423        5       0.00000524       0.00088251      -0.00047191
Al       8.77081785       1.64767614      12.34707658        5       0.00033671       0.00184827      -0.00213073
Al       1.60289949       4.13044242      12.33899151        5      -0.00013369      -0.00270686       0.00063783
Al       4.46321653       4.12478470      12.33821401        5       0.00049028      -0.00049846      -0.00019197
Al       7.33679809       4.12452436      12.33660948        5       0.00049356       0.00009503      -0.00199042
Al      10.20546807       4.13012053      12.33983730        5      -0.00053604      -0.00266747      -0.00372154
Al       3.03029604       6.60998306      12.35691003        5       0.00094022      -0.00092045       0.00115803
Al       5.90213355       6.61010449      12.34446040        5       0.00027187      -0.00103444       0.00013727
Al       8.77837348       6.61488573      12.35181126        5      -0.00138043      -0.00175724       0.00065806
Al      11.62948805       6.61205521      12.37086977        5       0.00039361      -0.00170078      -0.00122306
Al       4.47167396       9.09197280      12.35772244        5       0.00002126       0.00038540      -0.00199240
Al       7.33985233       9.09567235      12.35537568        5      -0.00071119      -0.00076908       0.00041774
Al      10.20043559       9.09357430      12.38219070        5      -0.00018113      -0.00107271      -0.00370402
Al      13.06051739       9.09263358      12.37862024        5      -0.00037282      -0.00100422      -0.00124391
Al       0.16653397      -0.02300368      14.65542368        4       0.00035579      -0.00034493       0.00109353
Al       3.03558021      -0.02117705      14.68563215        4      -0.00164166      -0.00403533      -0.00445229
Al       5.90212018      -0.03402195      14.69938465        4      -0.00129591      -0.00050330       0.00130909
Al       8.76191637      -0.02068033      14.66746319        4      -0.00017244      -0.00145721       0.00191097
Al       1.59777133       2.44967184      14.64609869        4       0.00012735      -0.00027308       0.00076630
Al       4.45977224       2.44474314      14.64441084        4      -0.00027660      -0.00134766       0.00186622
Al       7.32823681       2.44004859      14.64337591        4       0.00013879      -0.00011336       0.00154846
Al      10.19844221       2.45988353      14.65144517        4      -0.00183596      -0.00404315      -0.00038961
Al       3.01930319       4.93088346      14.64856290        4       0.00010376      -0.00094180       0.00064726
Al       5.88743901       4.92298739      14.62561827        4       0.00054204      -0.00057385       0.00135108
Al       8.76258713       4.92724328      14.62968569        4       0.00125690      -0.00031936       0.00499781
Al      11.62303279       4.93533884      14.67100041        4      -0.00411457      -0.00623054      -0.00916843
Al       4.45288307       7.41140283      14.64908543        4       0.00045935      -0.00003197       0.00115239
Al       7.33129938       7.40275070      14.63297725        4       0.00233676       0.00460407       0.00882963
Al      10.20085906       7.42062316      14.69430301        4       0.00029855      -0.00013218       0.00124393
Al      13.04691956       7.41559507      14.68294995        4      -0.00006054      -0.00008921       0.00239652
Al       1.55296554       0.74034385      16.98544264        3      -0.00106274      -0.00097355       0.00162353
Al       4.41251406       0.72122726      17.03497931        3       0.00078512      -0.00080198      -0.00068586
Al       7.28161844       0.71614334      17.02388240        3      -0.00133310      -0.00113193      -0.00096977
Al      10.13971716       0.73291942      17.00050530        3       0.00353521       0.00031795      -0.00008906
Al       2.96973926       3.20066259      16.97063796        3      -0.00001496      -0.00272516      -0.00224934
Al       5.84511294       3.19481206      16.95724933        3      -0.00235655      -0.00478611      -0.00656824
Al       8.71077867       3.19623356      16.96843710        3       0.00802864       0.00125214      -0.00475678
Al      11.57789632       3.19249309      16.99468760        3      -0.00484180      -0.00127603      -0.01318568
Al       4.40653481       5.68877395      16.94734843        3      -0.00454275      -0.00498186      -0.01163810
Al       7.29168975       5.69431667      16.92689165        3       0.00063051      -0.00005914      -0.00053134
Al      10.16004078       5.69568409      16.99165143        3      -0.00222672      -0.00119032      -0.00295769
Al      12.98985264       5.67684459      16.99192981        3       0.00066792       0.00070207       0.00110605
Al       5.85823551       8.18061528      16.95091154        3       0.00011785       0.00059311       0.00053503
Al       8.73924728       8.19665905      17.00665557        3      -0.00028417      -0.00115250      -0.00007261
Al      11.58584351       8.17965728      17.11293088        3      -0.00440781      -0.00475085      -0.02065428
Al      14.42756262       8.17639440      17.00560434        3      -0.00199009      -0.00237356      -0.00488698
Al       0.06681990       1.51065324      19.36524259        2      -0.00007634       0.00426507      -0.00430082
Al       2.90266931       1.48821498      19.32848789        2       0.00304398       0.00107092      -0.00306431
Al       5.78503890       1.49191172      19.31298160        2       0.00015646       0.00192925      -0.00016652
Al       8.65509263       1.50415370      19.31960704        2       0.00525350       0.00196126       0.00841346
Al       1.49025967       3.94536685      19.30832770        2       0.00029602       0.00205238      -0.00200227
Al       4.33904684       3.97376213      19.22247751        2       0.00705822       0.00387382       0.01311473
Al       7.23462753       4.00227516      19.20302331        2      -0.00116180      -0.00280014      -0.00011017
Al      10.13389718       3.98069722      19.25746804        2      -0.00364443      -0.00005977       0.00587511
Al       2.90459734       6.45611719      19.26063062        2       0.00143950       0.00149817      -0.00238206
Al       5.79176669       6.47492168      19.18871056        2      -0.00056473      -0.00150029       0.00331358
Al       8.67272785       6.49564672      19.22623511        2       0.00171679      -0.00044994       0.00026482
Al      11.51964633       6.43541173      19.38665365        2      -0.00046177       0.00023436      -0.00495207
Al       4.37295516       8.96034674      19.26654108        2       0.00224729      -0.00017015      -0.00039119
Al       7.23199266       8.98599210      19.26583366        2      -0.00015344       0.00072775       0.00104974
Al      10.11294619       8.95329811      19.50534907        2      -0.00264614      -0.00370657       0.00228780
Al      12.98872716       8.97118318      19.47147954        2      -0.00383203      -0.00093029      -0.00160749
Al      -0.08055835      -0.18213031      21.66783091        1      -0.00079984       0.00932082       0.00056118
Al       2.65951371      -0.19022697      22.07310717        1      -0.00105101      -0.00369487      -0.00179387
Al       5.62983036      -0.16398678      22.07334837        1      -0.00003598       0.00252695       0.00240295
Al       8.55888078      -0.25209760      22.06508921        1       0.00053101      -0.00134922       0.00365101
Al       1.40815700       2.34315540      22.09829021        1       0.00040952       0.00220367      -0.00151721
Al       4.25905322       2.31497172      21.59468647        1       0.00274575       0.00592843       0.00598891
Al       7.10075046       2.34748550      21.61094436        1      -0.00271217      -0.00996178      -0.00690690
Al       9.87888283       2.33673375      21.73699793        1       0.00278219      -0.00257304       0.00456880
Al       2.86245426       4.77975260      21.55966338        1      -0.00192461       0.00449812       0.00503858
Al       5.70415868       4.79788603      21.51172155        1      -0.00131652      -0.00083414      -0.00248445
Al       8.50084945       4.80490144      21.53935845        1       0.00098684      -0.00742347      -0.00043008
Al      11.36715358       4.83958138      22.05174064        1       0.00317165       0.00363946       0.00130361
Al       4.24820621       7.26303859      21.52658459        1       0.00651560       0.00004371       0.00839098
Al       7.04329441       7.27037163      21.52599220        1      -0.00243790       0.00044688      -0.00069632
Al       9.73811306       7.22505862      21.91582728        1       0.00557782       0.00204168      -0.00155382
Al      12.81279910       7.24520281      21.72208104        1       0.00055698       0.00432626       0.00149683
C        4.71358747       5.47968831      24.78900137        0       0.12457456      -0.07599969       0.00986987
N        5.22595757       4.24705070      24.84669028        0       0.01959073       0.00774455       0.01207675
C        6.57612675       4.46389032      24.94919280        0      -0.13661487       0.11813398       0.00637859
N        6.93381680       5.75457487      24.92498704        0      -0.00165384       0.00316101       0.00444431
N        5.72374848       6.39360829      24.86468255        0      -0.03348999      -0.01182489      -0.00893869
H        3.67267655       5.73277978      24.61347324        0      -0.03775195       0.04467129      -0.00151112
H        7.31689123       3.66819222      24.98415056        0       0.03639894      -0.04007628      -0.00440291
H        5.66345378       7.33960017      24.48825608        0       0.01647306      -0.00928546       0.00618074
