104
Lattice="11.45512985522207 0.0 0.0 5.727564927611035 9.92043345827187 0.0 0.0 0.0 31.691342951089922" Properties=species:S:1:pos:R:3:tags:I:1:forces:R:3 energy=-419.9563293457031 free_energy=-419.9563293457031 stress="0.008229510858654976 6.565824151039124e-07 -2.1141022443771362e-07 6.565824151039124e-07 0.008269707672297955 1.9203871488571167e-06 -2.1141022443771362e-07 1.9203871488571167e-06 0.008458544500172138" pbc="T T F"
Al       1.43366318       0.84349049       9.89764440        6       0.00098773       0.00035137       0.00054204
Al       4.29810787       0.83936524       9.91371286        6       0.00101233       0.00060910       0.00036961
Al       7.16078765       0.84083985       9.93035310        6       0.00095687       0.00055089       0.00015657
Al      10.02280039       0.84533966       9.90936004        6       0.00100547       0.00024159       0.00042937
Al       2.86262549       3.32523039       9.91653728        6       0.00112654       0.00044983       0.00018191
Al       5.72773776       3.32126022       9.92015000        6       0.00092106       0.00065978       0.00020252
Al       8.59136519       3.32263493       9.91501672        6       0.00087683       0.00064197       0.00012618
Al      11.45555380       3.32506450       9.91048013        6       0.00096682       0.00043678       0.00023153
Al       4.29227847       5.80765922       9.95089788        6       0.00109871       0.00017805      -0.00041115
Al       7.15648815       5.80584698       9.93502223        6       0.00096198       0.00028008      -0.00009329
Al      10.02251252       5.80472854       9.94109438        6       0.00088656       0.00038364      -0.00028033
Al      12.88470524       5.80836274       9.95215648        6       0.00105790       0.00020239      -0.00063202
Al       5.72616774       8.28658970       9.92948808        6       0.00097636       0.00022620       0.00021498
Al       8.59294126       8.28350335       9.92364887        6       0.00094033       0.00029123       0.00025651
Al      11.45737500       8.28525888       9.95574355        6       0.00087664       0.00018707      -0.00028908
Al      14.31633133       8.28726737       9.95731720        6       0.00116880       0.00012074      -0.00020386
Al       0.03936417       1.65304036      12.32756553        5       0.00183398       0.00119617      -0.00440492
Al       2.90560445       1.65446789      12.32706618        5      -0.00014781       0.00015502      -0.00145226
Al       5.76507577       1.65298620      12.34010423        5       0.00168686       0.00059974      -0.00108471
Al       8.62807467       1.65336762      12.33803291        5       0.00296982       0.00024621      -0.00451018
Al       1.47282301       4.13415331      12.34165897        5       0.00054599      -0.00005459      -0.00403535
Al       4.33426000       4.13251585      12.33726293        5       0.00192685       0.00077139       0.00265855
Al       7.20023327       4.13517015      12.33112255        5       0.00059630       0.00018692       0.00280090
Al      10.06129995       4.13324597      12.33682487        5       0.00309079       0.00021360      -0.00388733
Al       2.90292953       6.61798818      12.36163600        5       0.00178233       0.00098663       0.00425493
Al       5.76765465       6.62142435      12.34121683        5       0.00136679       0.00002296       0.00582204
Al       8.63161254       6.62102398      12.34281289        5       0.00165437       0.00079278       0.00462900
Al      11.49591109       6.61964559      12.35656328        5       0.00103565       0.00072305       0.00496781
Al       4.33500358       9.09987508      12.35534588        5       0.00147251       0.00082792      -0.00354224
Al       7.19942932       9.09889309      12.33810774        5       0.00174369       0.00189378      -0.00123998
Al      10.06374026       9.09948312      12.34928708        5       0.00123014       0.00091370       0.00399763
Al      12.92765669       9.09939042      12.36761904        5       0.00082995       0.00132123       0.00342409
Al       0.05142008      -0.00437304      14.64908533        4       0.00136061       0.00075861       0.00135630
Al       2.91165362      -0.00623387      14.64942626        4       0.00096645       0.00072257       0.00105019
Al       5.77117160      -0.00812258      14.68035150        4       0.00111320       0.00052294       0.00083699
Al       8.64550312      -0.00669967      14.67746510        4       0.00055642       0.00040526       0.00062058
Al       1.48188483       2.46437247      14.62683683        4       0.00054759       0.00085244       0.00153508
Al       4.33795347       2.45777812      14.64256086        4       0.00085018       0.00094050       0.00079641
Al       7.20237038       2.46163234      14.63805250        4       0.00128805       0.00057213       0.00061648
Al      10.07083800       2.45951361      14.63231018        4       0.00223689       0.00205949       0.00147900
Al       2.91165531       4.95083141      14.65444847        4       0.00040267       0.00062054       0.00046397
Al       5.77143269       4.95120250      14.64235257        4       0.00073731       0.00081178      -0.00188032
Al       8.64170214       4.95585148      14.63709622        4       0.00127128       0.00055164       0.00025277
Al      11.50301606       4.95399998      14.64007828        4       0.00142034       0.00069183       0.00111354
Al       4.34669863       7.44163338      14.66911734        4       0.00074666       0.00068803       0.00076772
Al       7.21068275       7.45157303      14.65585361        4       0.00096317       0.00020213       0.00020147
Al      10.07605488       7.44667918      14.66901518        4       0.00100584       0.00067085       0.00084435
Al      12.93568515       7.44365879      14.67918938        4       0.00088130       0.00055819       0.00143933
Al       1.48600278       0.81375732      17.00460291        3      -0.00820352      -0.01008118      -0.01563188
Al       4.32195544       0.79269309      17.00835272        3       0.00230099       0.00105598      -0.00020242
Al       7.20672701       0.79083171      17.01426352        3      -0.00315373      -0.00659745      -0.00642510
Al      10.09452055       0.80001310      16.99002296        3       0.00083211       0.00071609       0.00098294
Al       2.88139910       3.26615725      16.97331818        3       0.01478391       0.00191666      -0.00907335
Al       5.76697571       3.26230422      16.93707401        3      -0.00039037       0.00107804       0.00078430
Al       8.64729147       3.26441444      16.94146893        3       0.00164583       0.00106623      -0.00437999
Al      11.51739982       3.27787302      16.96405978        3      -0.00429370      -0.00228718      -0.00174695
Al       4.31418830       5.77246298      16.95829166        3       0.00524382      -0.00033315      -0.00098643
Al       7.20527143       5.77231456      16.92543990        3       0.00132811       0.00113685       0.00127208
Al      10.09454533       5.77869056      16.95556082        3      -0.00981662       0.00100072       0.00523241
Al      12.92183359       5.77019482      16.99477942        3       0.00354270       0.00424207      -0.00345025
Al       5.77023138       8.27000398      16.99429783        3       0.00293222       0.00093957      -0.00354708
Al       8.64701314       8.27907038      16.99909027        3      -0.00048853      -0.00512514      -0.00234660
Al      11.50932202       8.26726024      17.05913269        3       0.00141822       0.00140706      -0.00149159
Al      14.36049678       8.27431167      17.03566764        3       0.00072408       0.00031318       0.00060125
Al       0.06714783       1.60858722      19.34724944        2      -0.01156685      -0.00213782       0.00564956
Al       2.85304911       1.60989981      19.35400450        2       0.00319867      -0.00096442       0.00193827
Al       5.72702027       1.60467017      19.26706466        2       0.00403289       0.00172951       0.00305062
Al       8.64201882       1.59281767      19.25669611        2      -0.00160197       0.00253570       0.00293204
Al       1.46572304       4.09474249      19.28885814        2       0.00042637       0.00072589      -0.00279276
Al       4.30618930       4.08015484      19.21860748        2      -0.00120733       0.00230533      -0.00304937
Al       7.19988268       4.10183833      19.18201830        2       0.00024437      -0.00360462      -0.00075126
Al      10.07004772       4.08267842      19.21475432        2       0.00095639       0.00197624      -0.00565453
Al       2.88879211       6.59540371      19.28537923        2       0.00018601      -0.00174516       0.01397853
Al       5.75638658       6.60486217      19.20777219        2      -0.00006661       0.00201213       0.00315168
Al       8.62812970       6.60165762      19.22161383        2       0.00001478      -0.00168837      -0.00139444
Al      11.49727850       6.61031524      19.32400773        2       0.00123387      -0.00485512       0.00667206
Al       4.33748732       9.08087330      19.37749712        2      -0.00034472      -0.00240666       0.00100005
Al       7.20515920       9.10417219      19.32410304        2       0.00015914      -0.00464703       0.00080573
Al      10.05439400       9.07723392      19.42400407        2       0.00092088      -0.00228573      -0.00264839
Al      12.92512509       9.06403406      19.51680699        2       0.00106733       0.00053338       0.00072363
Al      -0.14972544      -0.16823313      22.02974111        1       0.00091100      -0.00017734      -0.00505339
Al       2.76402623      -0.03394772      22.04833277        1       0.00092833      -0.00397485      -0.00193372
Al       5.60965979       0.00111642      21.92718578        1      -0.00297579      -0.00019721      -0.00213456
Al       8.45343429       0.01812013      21.96135343        1       0.00141527      -0.00124879      -0.00099802
Al       1.41104679       2.57277967      22.13007504        1       0.00222087      -0.00013602      -0.00371511
Al       4.28232023       2.47444713      21.58776725        1      -0.00071260      -0.00352506      -0.00285283
Al       7.11658804       2.48630019      21.56169621        1       0.00245560      -0.00111743       0.00151393
Al      10.02933347       2.42633158      21.60930736        1      -0.00335716      -0.00000224      -0.00910068
Al       2.89112050       4.93035385      21.59932168        1      -0.00145585      -0.00030583       0.00077603
Al       5.73230912       4.93413995      21.42028031        1       0.00118047      -0.00001043      -0.00231373
Al       8.54635792       4.87107196      21.54370612        1      -0.00175386      -0.00174505       0.00251867
Al      11.41427592       4.91625973      21.57973644        1      -0.00344604       0.00098678       0.00393818
Al       4.21052934       7.37436959      21.64519733        1       0.00082123       0.00170521       0.00601861
Al       7.10421233       7.38404679      21.56376793        1      -0.00358038       0.00285958      -0.00235871
Al       9.85211685       7.27142533      21.75164551        1      -0.00171324       0.00082017       0.00130484
Al      12.80491600       7.30073378      22.13235203        1       0.00375608       0.00259820      -0.00541019
C        5.78025643       4.33968887      24.75226450        0       0.04523580       0.01381261       0.00422171
N        6.74813871       3.46907639      25.05477049        0       0.01641508       0.02154598       0.01394991
C        7.83999559       4.26964908      25.27145144        0      -0.05354094       0.01067910      -0.00252471
N        7.61534596       5.58033721      25.08934830        0      -0.03126227      -0.06802854      -0.02528028
N        6.28428105       5.60547083      24.78575791        0      -0.01884443       0.06805522      -0.00418374
H        4.76766132       4.10591001      24.43431959        0      -0.02446580      -0.01023512       0.00321354
H        8.82233765       3.88942816      25.54868610        0      -0.02854531       0.01076757      -0.01646233
H        5.86260938       6.41643133      24.32715873        0       0.03847095      -0.04929898       0.04297174
