104
Lattice="11.45512985522207 0.0 0.0 5.727564927611035 9.92043345827187 0.0 0.0 0.0 31.691342951089922" Properties=species:S:1:pos:R:3:tags:I:1:forces:R:3 energy=-419.9843444824219 free_energy=-419.9843444824219 stress="0.008617904037237167 1.2014061212539673e-07 2.0023435354232788e-08 1.2014061212539673e-07 0.00866533350199461 1.9525177776813507e-06 2.0023435354232788e-08 1.9525177776813507e-06 0.00886343140155077" pbc="T T F"
Al       1.56265789       0.85494295       9.89761957        6       0.00006915      -0.00021849       0.00109259
Al       4.42801346       0.85497866       9.91665428        6       0.00004481      -0.00022776       0.00094467
Al       7.28778553       0.85432760       9.92870000        6       0.00012106      -0.00019676       0.00066678
Al      10.15066892       0.85511012       9.90757987        6       0.00011643      -0.00023835       0.00092401
Al       2.99263134       3.33797579       9.89801495        6       0.00008055      -0.00026361       0.00104411
Al       5.85554967       3.33936193       9.91072089        6       0.00012147      -0.00028061       0.00079509
Al       8.71742607       3.33884998       9.89792321        6       0.00011215      -0.00021927       0.00088993
Al      11.58168939       3.33809685       9.88874258        6       0.00017546      -0.00025161       0.00106506
Al       4.42123828       5.81905471       9.93300065        6       0.00009799      -0.00033367       0.00058620
Al       7.28516842       5.82005887       9.92437039        6       0.00016440      -0.00031746       0.00080152
Al      10.14821408       5.81839298       9.92260588        6       0.00017349      -0.00018670       0.00088853
Al      13.01291620       5.81802106       9.92407471        6       0.00011550      -0.00026540       0.00090608
Al       5.85472113       8.29503940       9.93215239        6       0.00009892      -0.00017257       0.00078029
Al       8.72002922       8.29607430       9.93178157        6       0.00014699      -0.00023347       0.00095162
Al      11.58313299       8.29491991       9.94967432        6       0.00006881      -0.00026093       0.00075527
Al      14.44461073       8.29497444       9.95550320        6       0.00012001      -0.00028661       0.00044005
Al       0.16048554       1.66235752      12.32218101        5       0.00089945      -0.00219287      -0.00042201
Al       3.02203855       1.66215510      12.32751526        5       0.00086807      -0.00232001       0.00134046
Al       5.89017346       1.65936232      12.33865453        5      -0.00091521      -0.00082065       0.00300336
Al       8.75598715       1.66300217      12.33171122        5      -0.00102224      -0.00271547       0.00194872
Al       1.58867667       4.13622521      12.33149175        5       0.00054592       0.00141499      -0.00318878
Al       4.45468665       4.13609245      12.32862529        5       0.00005152       0.00061603       0.00307381
Al       7.32524266       4.13792058      12.32636360        5      -0.00085030       0.00046637       0.00456771
Al      10.18412327       4.13522124      12.32109081        5       0.00121266       0.00209523       0.00450381
Al       3.02299553       6.62124689      12.35622360        5      -0.00066811      -0.00126254      -0.00150253
Al       5.89214850       6.62058338      12.34595839        5      -0.00032057       0.00065982       0.00104065
Al       8.75618679       6.62271349      12.35529647        5       0.00126528       0.00048866      -0.00209763
Al      11.61456890       6.62250486      12.35834993        5       0.00036876      -0.00153115       0.00023212
Al       4.45881897       9.10591984      12.35396075        5      -0.00036693      -0.00102554      -0.00053332
Al       7.32123852       9.10545953      12.34651532        5       0.00087120      -0.00044144       0.00003166
Al      10.18676873       9.10216212      12.36273021        5      -0.00095017       0.00050822       0.00197785
Al      13.04848814       9.10369508      12.36858961        5       0.00023781      -0.00014362       0.00147397
Al       0.16476541      -0.00905408      14.65933196        4      -0.00018590      -0.00013587       0.00092660
Al       3.02631792      -0.00980994      14.66496748        4       0.00003386      -0.00014653       0.00122647
Al       5.89150348      -0.01650915      14.68494815        4      -0.00019275      -0.00022918       0.00134451
Al       8.75575216      -0.00761103      14.67733462        4      -0.00046121      -0.00073189       0.00053231
Al       1.59179486       2.45786993      14.63616708        4      -0.00032393      -0.00014772       0.00101141
Al       4.45439863       2.45400392      14.63935006        4      -0.00039779      -0.00014779       0.00134406
Al       7.31916117       2.45578699      14.64044914        4       0.00036194      -0.00002981       0.00162208
Al      10.18928601       2.46114506      14.63629196        4      -0.00041653      -0.00021856       0.00101218
Al       3.01536693       4.93472365      14.64241602        4      -0.00020639       0.00019001       0.00127380
Al       5.88268161       4.93827413      14.63856964        4       0.00020151      -0.00037381       0.00006052
Al       8.75863806       4.94275255      14.64454122        4      -0.00017882      -0.00034452       0.00055519
Al      11.61210026       4.94306971      14.64925399        4       0.00007924      -0.00014522       0.00106338
Al       4.45088233       7.42538441      14.65739299        4      -0.00002458       0.00013434       0.00111764
Al       7.32959240       7.43368027      14.65918200        4      -0.00123700      -0.00149612      -0.00114398
Al      10.20005240       7.43635471      14.69264201        4      -0.00158293      -0.00120963      -0.00060118
Al      13.04095746       7.42942792      14.67441422        4       0.00010660      -0.00035298       0.00227148
Al       1.55206297       0.74626641      17.00859847        3      -0.00135699      -0.00181287      -0.00753109
Al       4.41329497       0.72950806      17.01945801        3      -0.00236919      -0.00128688       0.00080178
Al       7.27677153       0.72237848      17.02725069        3       0.00009583       0.00075879       0.00038793
Al      10.15102389       0.74399858      17.00688945        3       0.00010976       0.00013837       0.00125518
Al       2.96293776       3.20311785      16.96445773        3       0.00052747       0.00034724       0.00130651
Al       5.83992317       3.19842892      16.95660815        3      -0.00014863       0.00011049      -0.00080036
Al       8.72902506       3.20779507      16.96603596        3      -0.00483546      -0.00221165      -0.00157270
Al      11.57187691       3.20417746      16.97503133        3       0.00021083       0.00022031       0.00111264
Al       4.40331180       5.69745085      16.94875704        3      -0.00038310       0.00004118       0.00057729
Al       7.28390270       5.70224244      16.94128574        3      -0.00010619      -0.00002206       0.00072993
Al      10.15210002       5.70667005      16.98662379        3       0.00118844       0.00014004       0.00084799
Al      12.98544428       5.70341714      16.99022812        3       0.00046464      -0.00057068      -0.00011560
Al       5.85527679       8.20218228      16.96316643        3      -0.00123688      -0.00259376       0.00312759
Al       8.72665175       8.19434371      16.99960544        3       0.00211254       0.00442877       0.00416022
Al      11.57945870       8.18894322      17.09320156        3       0.00011990       0.00013732       0.00134276
Al      14.42505529       8.19881944      17.00553985        3      -0.00054726      -0.00391526       0.00036507
Al       0.06974389       1.51478430      19.39137876        2       0.00064664       0.00247649      -0.00329942
Al       2.89435542       1.50706588      19.34561928        2       0.00490161      -0.00033006       0.00143327
Al       5.77317967       1.50965978      19.30860013        2      -0.00155140      -0.00245089       0.00005657
Al       8.67486023       1.50473784      19.32396412        2      -0.00318958       0.00127868      -0.00395023
Al       1.48179985       3.96675849      19.28518113        2       0.00160041       0.00093319       0.00062287
Al       4.33512922       3.98923027      19.25056662        2      -0.00114387      -0.00091244      -0.00909177
Al       7.22325217       4.00029963      19.21139540        2       0.00380031       0.00086235      -0.00468312
Al      10.12800885       3.99536334      19.26656747        2       0.00055907      -0.00102539      -0.00658489
Al       2.90392572       6.47216877      19.26679553        2      -0.00091644       0.00071519      -0.00372191
Al       5.78942295       6.48197649      19.22111014        2      -0.00111592       0.00001032      -0.00728846
Al       8.68126250       6.50038222      19.22898412        2      -0.00153053       0.00086537       0.00125090
Al      11.52561475       6.45776349      19.40204739        2      -0.00064612      -0.00157725      -0.00625931
Al       4.37831339       8.96793386      19.29108186        2      -0.00057733       0.00075384      -0.00092989
Al       7.23380204       8.99814113      19.29619838        2      -0.00022726      -0.00213201      -0.00096319
Al      10.09539689       8.96149805      19.48354676        2      -0.00034725      -0.00019471      -0.00016350
Al      12.97331654       8.97903445      19.48752185        2       0.00011793      -0.00015547       0.00059019
Al      -0.08655025      -0.24396435      21.76491742        1      -0.00007067       0.01004369      -0.00226529
Al       2.66360989      -0.18361403      22.10726274        1      -0.00057960      -0.00279008      -0.00392042
Al       5.62981614      -0.13982255      21.98593540        1      -0.00153810       0.00004103       0.00464325
Al       8.55260290      -0.18236630      22.04924882        1      -0.00026874      -0.00243554       0.00199519
Al       1.39237600       2.36771537      22.05914557        1       0.00040431       0.00004490       0.00193671
Al       4.25331811       2.34738724      21.63193722        1       0.00236896       0.00030978      -0.00192236
Al       7.10801790       2.35617290      21.59087710        1      -0.00019622      -0.00275777       0.00205420
Al       9.92943669       2.33053206      21.72605220        1      -0.00115375      -0.00072082       0.00017980
Al       2.82007850       4.79949484      21.57298103        1       0.00206898       0.00102639      -0.00179322
Al       5.67793057       4.80674111      21.51917525        1       0.00491935      -0.00038931       0.00054921
Al       8.47417290       4.80494542      21.56001833        1       0.00025957      -0.00169541      -0.00113660
Al      11.29549583       4.83780970      22.00324901        1       0.00347410       0.00374373      -0.00096669
Al       4.21675092       7.28943559      21.54751325        1       0.00465577      -0.00708671       0.00701493
Al       7.02767476       7.25898720      21.55565971        1       0.00111559       0.00240323      -0.00311188
Al       9.71987554       7.23881775      21.90524616        1       0.00132759      -0.00037362      -0.00047666
Al      12.79288223       7.24371691      21.79416755        1       0.00231809       0.00396437      -0.00213637
C        4.83570411       5.33562708      24.81374769        0      -0.01988150       0.00002128      -0.00087901
N        5.38137048       4.11865260      24.90094614        0      -0.01088355       0.00482404       0.00100957
C        6.72189076       4.37727718      25.00377861        0       0.01898048       0.00474061       0.00555286
N        7.04314887       5.67766493      24.95952884        0       0.01383100       0.00286651      -0.00287677
N        5.81790071       6.27859932      24.87295195        0      -0.00270014       0.00484569       0.00422117
H        3.78861966       5.57456481      24.64442004        0       0.00020621      -0.00718333      -0.00688534
H        7.48744665       3.60143991      25.03881329        0      -0.01015562       0.01219545       0.00100869
H        5.73863017       7.22519755      24.50271517        0      -0.00135900      -0.00310854      -0.00741313
