104
Lattice="11.45512985522207 0.0 0.0 5.727564927611035 9.92043345827187 0.0 0.0 0.0 31.691342951089922" Properties=species:S:1:pos:R:3:tags:I:1:forces:R:3 energy=-419.8529052734375 free_energy=-419.8529052734375 stress="0.006917276885360479 6.272457540035248e-07 -4.563480615615845e-08 6.272457540035248e-07 0.0069698430597782135 1.4943070709705353e-06 -4.563480615615845e-08 1.4943070709705353e-06 0.007123415358364582" pbc="T T F"
Al       1.61331450       0.84858693       9.94627870        6       0.00008129      -0.00054060      -0.00122807
Al       4.47843419       0.84846457       9.96169003        6       0.00008606      -0.00048586      -0.00114098
Al       7.33843832       0.84765591       9.96248459        6       0.00004917      -0.00049127      -0.00119873
Al      10.20152682       0.84746093       9.94900494        6       0.00004470      -0.00055357      -0.00135569
Al       3.04370027       3.32953469       9.93731922        6       0.00009270      -0.00048795      -0.00131082
Al       5.90744724       3.33038192       9.94694010        6       0.00003538      -0.00044096      -0.00124460
Al       8.76938317       3.33013783       9.93657520        6       0.00005536      -0.00042225      -0.00128751
Al      11.63344317       3.33025615       9.92947879        6       0.00000296      -0.00044018      -0.00134615
Al       4.47240453       5.81055753       9.95514891        6       0.00009784      -0.00041677      -0.00121941
Al       7.33814923       5.81185127       9.95471605        6       0.00008897      -0.00042065      -0.00124039
Al      10.20183962       5.81234619       9.95528154        6       0.00000900      -0.00043816      -0.00126722
Al      13.06407434       5.81113808       9.95469977        6       0.00005566      -0.00047513      -0.00133666
Al       5.90607493       8.28919477       9.96203845        6       0.00008826      -0.00052074      -0.00136776
Al       8.77309879       8.29062248       9.97185594        6       0.00009169      -0.00050517      -0.00132375
Al      11.63431343       8.28884582       9.98103164        6       0.00009214      -0.00044901      -0.00126098
Al      14.49419565       8.28816147       9.97512855        6       0.00007242      -0.00047453      -0.00133774
Al       0.18949167       1.63151898      12.34082331        5       0.00019082      -0.00132038      -0.00343040
Al       3.05455999       1.62875366      12.35038310        5      -0.00075985       0.00005497      -0.00165608
Al       5.91807187       1.62875125      12.36319693        5      -0.00023688      -0.00093200      -0.00052693
Al       8.78158755       1.62986117      12.35141813        5      -0.00076250      -0.00109817      -0.00216685
Al       1.61874901       4.11037296      12.33406454        5       0.00038903      -0.00165129       0.00003372
Al       4.48421060       4.10790798      12.34070262        5      -0.00042946      -0.00062904      -0.00016536
Al       7.35377129       4.10944125      12.34126778        5      -0.00057875      -0.00040425       0.00116642
Al      10.21487771       4.10899490      12.33682197        5      -0.00063017      -0.00022367       0.00045441
Al       3.05113735       6.59367758      12.36100880        5      -0.00087400      -0.00162304      -0.00104674
Al       5.92097823       6.59512629      12.35069144        5      -0.00024157      -0.00191017       0.00236928
Al       8.78917160       6.59534398      12.36166981        5      -0.00052814      -0.00161667       0.00169284
Al      11.64628689       6.59408472      12.36582382        5       0.00025577      -0.00105341       0.00212212
Al       4.48545719       9.07364160      12.36024385        5      -0.00089766      -0.00017481      -0.00192402
Al       7.35270027       9.07301954      12.36070826        5       0.00007809       0.00055950      -0.00193318
Al      10.21713378       9.07270136      12.38082169        5       0.00054517       0.00027133       0.00059801
Al      13.07626894       9.07331012      12.38195287        5      -0.00091119      -0.00084987       0.00059984
Al       0.17780919      -0.04918118      14.65497989        4      -0.00002957      -0.00062367      -0.00072913
Al       3.04198006      -0.05627688      14.67432776        4       0.00027436      -0.00011787      -0.00011142
Al       5.90252749      -0.05760425      14.70927981        4       0.00006624      -0.00050997      -0.00238193
Al       8.76767683      -0.05414735      14.67834798        4      -0.00018541      -0.00035007      -0.00061864
Al       1.60264341       2.41882549      14.64058417        4       0.00030734      -0.00017369      -0.00024468
Al       4.46422832       2.41443831      14.65499180        4       0.00027045      -0.00025501      -0.00044780
Al       7.34061632       2.41820387      14.65475335        4      -0.00007373      -0.00032055      -0.00027053
Al      10.20143907       2.41852665      14.64453145        4       0.00004682      -0.00003961      -0.00035052
Al       3.02492836       4.89637271      14.63658367        4       0.00038866      -0.00043239      -0.00085430
Al       5.90199091       4.89818031      14.62983128        4       0.00004138      -0.00040481      -0.00042900
Al       8.77885525       4.90567479      14.64486681        4      -0.00188042      -0.00253369      -0.00308976
Al      11.62796412       4.89872921      14.64174384        4       0.00013283      -0.00016419      -0.00011399
Al       4.46584199       7.39108049      14.65086652        4       0.00007891      -0.00105244      -0.00102123
Al       7.34794400       7.39518957      14.66312402        4      -0.00215588      -0.00301669      -0.00521467
Al      10.21065040       7.39330486      14.69398150        4      -0.00013991      -0.00048627      -0.00070858
Al      13.05057499       7.38365649      14.69167691        4       0.00011480      -0.00060645      -0.00538017
Al       1.55859483       0.71387989      16.98582152        3       0.00112185       0.00085833      -0.00166771
Al       4.42390211       0.68833452      17.02838072        3       0.00015638      -0.00013207      -0.00007582
Al       7.29034342       0.70155707      17.02291929        3       0.00081594      -0.00034351      -0.00056144
Al      10.16466449       0.71855339      16.98362068        3      -0.00193933      -0.00024055       0.00077057
Al       2.97508039       3.17308034      16.96310544        3       0.00027884      -0.00024725      -0.00008565
Al       5.85251709       3.16534238      16.95077499        3       0.00012974      -0.00008765      -0.00018674
Al       8.73744556       3.17948238      16.96894985        3      -0.00228023      -0.00413408      -0.00322090
Al      11.58216588       3.18646160      16.96689905        3       0.00025331      -0.00015692       0.00002948
Al       4.40306762       5.66004741      16.92175918        3       0.00455381      -0.00001509       0.00190359
Al       7.29657898       5.66880960      16.92742860        3      -0.00090005      -0.00071638      -0.00015990
Al      10.15282661       5.67166770      16.97526049        3       0.01263092      -0.00025322       0.00404339
Al      13.00078617       5.65293337      16.96947651        3      -0.00098192       0.00019259       0.00039270
Al       5.86147497       8.16594605      16.95018873        3      -0.00033932      -0.00076893      -0.00019385
Al       8.73691870       8.16124777      17.01061121        3       0.00294504       0.00202946      -0.00034970
Al      11.58547946       8.15565850      17.07512901        3       0.00023434      -0.00008165      -0.00001109
Al      14.43159993       8.15101770      16.98600347        3       0.00085931       0.00128069       0.00012566
Al       0.07640047       1.52452691      19.32613298        2       0.00152752      -0.00097213       0.01027923
Al       2.93013419       1.48392288      19.30430682        2       0.00117175       0.00102006       0.01507102
Al       5.79947463       1.48177961      19.31500070        2      -0.00123607      -0.00137732       0.00422799
Al       8.67824778       1.48559642      19.34259985        2       0.00131086       0.00167004       0.00015707
Al       1.48703700       3.94479327      19.30538875        2       0.00070776       0.00233831       0.00938649
Al       4.35591584       3.97255209      19.22361236        2       0.00054513      -0.00088452      -0.00121346
Al       7.24815456       3.97497042      19.19346240        2      -0.00103111       0.00108710       0.01655599
Al      10.12096775       3.96368902      19.27277945        2       0.00244435       0.00090442       0.00079328
Al       2.91813251       6.45500519      19.23040418        2       0.00021016       0.00036438       0.00320761
Al       5.80165940       6.46302529      19.17840880        2       0.00268273      -0.00256201       0.00489352
Al       8.68927368       6.45651076      19.22466567        2      -0.00055408       0.00369774       0.00632225
Al      11.52638297       6.43374801      19.34397557        2      -0.00092494      -0.00174930       0.00241128
Al       4.38962577       8.95902459      19.24796670        2      -0.00018318       0.00079248       0.00382146
Al       7.24364631       8.98423529      19.25462045        2       0.00176076      -0.00263721       0.00834524
Al      10.12025626       8.93299545      19.51614113        2      -0.00030574      -0.00005471      -0.00136006
Al      12.98702508       8.96440898      19.41358095        2      -0.00006751      -0.00229754       0.00204546
Al      -0.10640345      -0.10026941      21.65499304        1       0.00055896      -0.00011265       0.00072827
Al       2.62917196      -0.22610638      22.01888686        1      -0.00218085       0.00051497      -0.00234330
Al       5.63226481      -0.14392993      22.12706669        1       0.00042383       0.00063172      -0.00332869
Al       8.55561406      -0.31317842      22.06205246        1       0.00219154      -0.00162677       0.00089559
Al       1.44758904       2.37708047      22.04788422        1      -0.00133161      -0.00213171      -0.00235024
Al       4.26477523       2.34029140      21.60695739        1       0.00405364      -0.00156506      -0.00365589
Al       7.12251667       2.30904084      21.61421454        1      -0.00443986       0.00012070      -0.00500739
Al       9.89935195       2.30102045      21.83155563        1       0.00072456      -0.00099874       0.00188610
Al       2.87396883       4.81652355      21.55124688        1       0.00092464       0.00029756      -0.00745762
Al       5.72873000       4.77978890      21.49494308        1       0.00524549       0.00176484       0.01273621
Al       8.55600251       4.77258336      21.54356705        1      -0.00473213       0.00201869      -0.00198355
Al      11.44799775       4.89623228      22.06140320        1      -0.00039488      -0.00065184      -0.00206724
Al       4.29466145       7.26308530      21.48585570        1       0.00063792       0.00159185      -0.00038690
Al       7.06589616       7.25189318      21.52116467        1       0.00050981      -0.00014205      -0.00070511
Al       9.79502864       7.23206341      21.89770306        1       0.00153903       0.00312192      -0.00302800
Al      12.82260267       7.29092759      21.67270844        1      -0.00138177       0.00083455      -0.00606486
C        4.53748404       5.67680473      24.80172994        0      -0.01446642       0.01207132       0.00567166
N        4.99847106       4.42746425      24.89132043        0       0.01112205       0.00140329      -0.00097044
C        6.35563475       4.59543500      24.98749186        0      -0.02656972       0.02365466      -0.00317208
N        6.76434472       5.87084580      24.94295082        0      -0.00010563      -0.00610470      -0.00656699
N        5.58038576       6.55154096      24.85967639        0      -0.00077204      -0.00231163       0.00356031
H        3.50936853       5.98739411      24.63393020        0      -0.00945857      -0.00849350      -0.00734676
H        7.06323265       3.76895603      25.01881854        0       0.02251377      -0.01848469       0.00900742
H        5.56761557       7.49683077      24.48203423        0      -0.00311177       0.02932395      -0.01749563
