104
Lattice="11.45512985522207 0.0 0.0 5.727564927611035 9.92043345827187 0.0 0.0 0.0 31.691342951089922" Properties=species:S:1:pos:R:3:tags:I:1:forces:R:3 energy=-420.23687744140625 free_energy=-420.23687744140625 stress="0.003947156481444836 7.920898497104645e-07 -3.9534643292427063e-07 7.920898497104645e-07 0.004020078107714653 2.8638169169425964e-06 -3.9534643292427063e-07 2.8638169169425964e-06 0.004353426396846771" pbc="T T F"
Al       1.42444703       0.83483655      10.02870564        6       0.00066665       0.00031541      -0.00326699
Al       4.28841734       0.83464376      10.02960838        6       0.00076477       0.00006514      -0.00314428
Al       7.15199331       0.83450635      10.02990540        6       0.00075180       0.00018890      -0.00252786
Al      10.01556737       0.83472329      10.02907536        6       0.00057871       0.00048776      -0.00313392
Al       2.85621379       3.31520660      10.02882597        6       0.00046866       0.00039408      -0.00325200
Al       5.71997374       3.31478182      10.02880771        6       0.00060505       0.00014485      -0.00355362
Al       8.58377550       3.31478788      10.02852325        6       0.00069512       0.00018286      -0.00321035
Al      11.44758531       3.31521983      10.02830089        6       0.00057942       0.00035685      -0.00315574
Al       4.28792075       5.79555397      10.02959517        6       0.00056891       0.00081629      -0.00161710
Al       7.15185206       5.79535647      10.02911029        6       0.00061027       0.00069499      -0.00213183
Al      10.01598268       5.79552377      10.02943972        6       0.00073574       0.00065736      -0.00164738
Al      12.87950698       5.79566459      10.03014914        6       0.00064988       0.00079192      -0.00103448
Al       5.71989711       8.27547645      10.02962896        6       0.00055791       0.00084704      -0.00210132
Al       8.58411492       8.27541950      10.02966425        6       0.00074782       0.00065982      -0.00213946
Al      11.44797148       8.27544624      10.03081186        6       0.00072907       0.00070539      -0.00105866
Al      14.31125845       8.27552339      10.03059950        6       0.00059920       0.00088057      -0.00119679
Al       0.01496003       1.64994987      12.38482517        5       0.00021165       0.00187906      -0.01365802
Al       2.87648609       1.64987217      12.38575128        5      -0.00165761       0.00084752      -0.01398852
Al       5.74024307       1.64688743      12.38584406        5      -0.00117148       0.00138306      -0.01703153
Al       8.60499117       1.64726042      12.38631988        5       0.00236129       0.00204380      -0.01511020
Al       1.44561495       4.13489010      12.39023860        5      -0.00096914      -0.00049082      -0.01761099
Al       4.30616354       4.13423943      12.38470733        5      -0.00069561       0.00030103      -0.01870658
Al       7.17240088       4.13242572      12.38132214        5       0.00192253       0.00124201      -0.02022398
Al      10.04007060       4.13505287      12.38556498        5       0.00060915       0.00002761      -0.01867520
Al       2.87493181       6.61784993      12.40087227        5      -0.00099108       0.00047479      -0.01712960
Al       5.73871191       6.61795837      12.39189107        5       0.00095620       0.00257644      -0.02308540
Al       8.60824548       6.61875017      12.39291066        5       0.00020304       0.00179309      -0.02415241
Al      11.47155547       6.61818292      12.40362157        5      -0.00013335      -0.00002240      -0.02003080
Al       4.30750766       9.09300596      12.39726317        5       0.00212342       0.00149545      -0.01927389
Al       7.17383531       9.09445629      12.39247620        5      -0.00026140       0.00083902      -0.01875130
Al      10.03910580       9.09322676      12.39920804        5      -0.00294031      -0.00018957      -0.02275814
Al      12.90008281       9.09108253      12.40432958        5       0.00015165      -0.00030885      -0.01930720
Al       0.01267482      -0.00269187      14.66758714        4       0.00116619       0.00073498       0.00240127
Al       2.87367701      -0.00249869      14.67029212        4       0.00120145       0.00072540       0.00244131
Al       5.73506711      -0.01017895      14.67596572        4       0.00101691       0.00112723       0.00378729
Al       8.60161626      -0.01085740      14.67414283        4       0.00217604       0.00135041       0.00418804
Al       1.44175502       2.47320411      14.65985248        4       0.00135647       0.00079095       0.00255585
Al       4.30106249       2.47042178      14.64704893        4       0.00217757       0.00024703       0.01350784
Al       7.16881674       2.46457831      14.64230168        4       0.00246693       0.00148539       0.01166771
Al      10.04048507       2.47141571      14.64867377        4       0.00081676       0.00036162       0.00762414
Al       2.86900027       4.96088299      14.65993492        4       0.00185291      -0.00196253       0.00804384
Al       5.73442019       4.96059087      14.63944505        4       0.00195483      -0.00188520       0.01324048
Al       8.60591299       4.96101071      14.64008515        4       0.00231672      -0.00117575       0.01402340
Al      11.47173834       4.96068328      14.66282743        4       0.00121415      -0.00105788       0.00703658
Al       4.29724035       7.44421053      14.67339714        4       0.00230937       0.00068068       0.00363210
Al       7.17051519       7.44196267      14.65914540        4       0.00212566       0.00073599       0.00891445
Al      10.04137286       7.44519785      14.67792574        4       0.00079667       0.00034269       0.00354112
Al      12.89564068       7.44345056      14.69767282        4       0.00118006       0.00054944       0.00224148
Al       1.43258693       0.81408949      16.98169409        3       0.00102868       0.00092060       0.00244060
Al       4.28607749       0.80624278      16.97818947        3       0.00098035       0.00087368       0.00242357
Al       7.16105602       0.78772754      16.96544985        3       0.00172450       0.00744583       0.00025501
Al      10.03749745       0.80761103      16.97121902        3       0.00104743       0.00073323       0.00231705
Al       2.85556609       3.28702801      16.95537791        3       0.00117957       0.00063354       0.00198599
Al       5.72632014       3.29473300      16.92186771        3       0.00146021      -0.00195020      -0.00008351
Al       8.60385149       3.29392920      16.91921274        3       0.00096127       0.00040850       0.00071024
Al      11.46662962       3.28924024      16.96091081        3       0.00153583       0.00063820       0.00182305
Al       4.28848770       5.78600513      16.94632571        3       0.00072255       0.00154132       0.00210185
Al       7.15983997       5.77772672      16.93517491        3       0.00617719       0.00657073      -0.00783406
Al      10.03738649       5.78489271      16.95252693        3       0.00170572       0.00188066       0.00128958
Al      12.89166520       5.78109285      16.98902962        3       0.00096504       0.00093651       0.00238920
Al       5.72661255       8.27216572      16.96593703        3       0.00139288       0.00131825       0.00244413
Al       8.59917833       8.27254439      16.97284549        3       0.00097066       0.00097776       0.00242506
Al      11.46073600       8.26797028      17.02533774        3      -0.00075266      -0.00037191       0.00048668
Al      14.31183792       8.26110748      17.01986187        3       0.00579448       0.00007181      -0.00118583
Al       0.01578837       1.64725315      19.28908799        2       0.00503409      -0.00362493      -0.00204185
Al       2.84758005       1.65005650      19.29040239        2       0.00148149      -0.00204824       0.00310512
Al       5.72488504       1.66458855      19.19382049        2       0.00360609      -0.00583356       0.02794930
Al       8.60025987       1.66578064      19.18278762        2       0.00064098      -0.00659790       0.02168205
Al       1.43826764       4.12421639      19.26769227        2       0.00325330      -0.00156554       0.00080379
Al       4.27800011       4.13578816      19.17735499        2       0.01276496       0.00070990       0.03391884
Al       7.17123184       4.12496496      19.17545800        2      -0.00041012       0.00566120       0.01011379
Al      10.04240138       4.13457636      19.19404034        2      -0.00403397       0.00094564       0.00534128
Al       2.87618397       6.61441907      19.30416628        2      -0.00063084       0.00625417       0.01748255
Al       5.73390816       6.63688310      19.18904841        2       0.00000102      -0.01122108       0.04728208
Al       8.59997230       6.62905197      19.19124673        2      -0.00090709      -0.00941905       0.03427067
Al      11.46090008       6.61491077      19.29465117        2       0.00429385       0.00472853       0.00212376
Al       4.30629856       9.10114447      19.31762938        2      -0.00209436      -0.00379351       0.02461187
Al       7.16973537       9.10774572      19.28788245        2      -0.00015299      -0.00444949       0.01179920
Al      10.02108984       9.09940545      19.36870089        2       0.00098743       0.00091240       0.00243708
Al      12.88694507       9.09957025      19.34766513        2       0.00447135      -0.00254223       0.01884713
Al      -0.04890226      -0.07223749      21.80213516        1      -0.00122377       0.00041279       0.00608923
Al       2.86977002      -0.04523613      21.82069911        1      -0.00414088       0.00349539       0.00648282
Al       5.69965759       0.05580997      21.73752920        1      -0.00078493      -0.00620181       0.00702350
Al       8.55401941       0.05398392      21.73562679        1      -0.00049512      -0.00602547       0.00290252
Al       1.44382582       2.55152554      21.80734735        1       0.00033041       0.00121529       0.01413857
Al       4.31980315       2.51184193      21.50930489        1      -0.00042454      -0.00107935       0.02394710
Al       7.16639834       2.54212617      21.55640893        1      -0.00103278      -0.01209368      -0.01790441
Al      10.01288224       2.50124550      21.51494992        1       0.00004880      -0.00063410       0.02709637
Al       2.91894897       4.97280586      21.61901206        1       0.00345177      -0.01187661      -0.02222784
Al       5.76181167       4.94701808      21.46823265        1      -0.02846366       0.01280884      -0.00952425
Al       8.57689021       4.94869315      21.52025184        1       0.00925358      -0.00430561      -0.00780197
Al      11.43538826       4.96152839      21.57314692        1      -0.00285549      -0.00196115       0.01088683
Al       4.31216485       7.40563867      21.73297368        1      -0.01022270      -0.00020045      -0.02935263
Al       7.13392967       7.37989446      21.59391478        1      -0.00559806       0.01057897      -0.05023609
Al       9.93407420       7.35884438      21.72998251        1       0.02422282       0.01357605      -0.02132462
Al      12.89624123       7.35436787      21.86739057        1      -0.00288765      -0.00138820       0.00951686
C        6.05390645       3.97824257      24.90698376        0       0.10112832       0.14189923       0.01197123
N        7.24558008       3.37895476      24.95742852        0      -0.22160320      -0.34712991       0.00869494
C        8.13188373       4.40977668      25.02210127        0      -0.05639794       0.14912654       0.01186219
N        7.57316271       5.62303777      25.00477390        0      -0.27480361       0.15354985      -0.03402616
N        6.22270120       5.33478453      24.96915705        0       0.27472067      -0.23465069       0.01592567
H        5.09515926       3.48055510      24.79428298        0      -0.03582892       0.02397373      -0.03546549
H        9.20874136       4.27141756      25.02647822        0       0.10849112      -0.00103899       0.02713943
H        5.56479324       6.00578775      24.57830494        0       0.03375725       0.10207421      -0.00070375
