104
Lattice="11.45512985522207 0.0 0.0 5.727564927611035 9.92043345827187 0.0 0.0 0.0 31.691342951089922" Properties=species:S:1:pos:R:3:tags:I:1:forces:R:3 energy=-419.95465087890625 free_energy=-419.95465087890625 stress="0.008645003661513329 4.4424086809158325e-07 -2.0302832126617432e-07 4.4424086809158325e-07 0.008686438202857971 2.0363368093967438e-06 -2.0302832126617432e-07 2.0363368093967438e-06 0.00888998992741108" pbc="T T F"
Al       1.44141324       0.84477212       9.88724746        6       0.00074363      -0.00012331       0.00080334
Al       4.30594142       0.84195408       9.90413733        6       0.00073010      -0.00009506       0.00081648
Al       7.16808204       0.84332448       9.92120283        6       0.00074079      -0.00014869       0.00065262
Al      10.03038382       0.84619121       9.89927462        6       0.00075220      -0.00017742       0.00070351
Al       2.87107677       3.32732897       9.90567642        6       0.00073315      -0.00012018       0.00049235
Al       5.73485323       3.32452524       9.91089415        6       0.00069306      -0.00007651       0.00050306
Al       8.59781571       3.32598527       9.90408086        6       0.00074202      -0.00008463       0.00049153
Al      11.46277273       3.32727956       9.89899178        6       0.00071169      -0.00006846       0.00043408
Al       4.30010661       5.80808535       9.94060204        6       0.00068922      -0.00015525       0.00036509
Al       7.16335407       5.80653275       9.92501740        6       0.00079114      -0.00013274       0.00046408
Al      10.02897034       5.80603228       9.92971028        6       0.00076382      -0.00008452       0.00043423
Al      12.89223767       5.80885909       9.93923988        6       0.00075794      -0.00015297       0.00040641
Al       5.73349574       8.28706986       9.92039808        6       0.00071322      -0.00021100       0.00059822
Al       8.60004520       8.28398208       9.91438657        6       0.00075018      -0.00016624       0.00076954
Al      11.46410190       8.28510575       9.94525341        6       0.00070118      -0.00024125       0.00058776
Al      14.32469680       8.28712530       9.94811939        6       0.00075477      -0.00023209       0.00052505
Al       0.05276773       1.65747495      12.31225616        5       0.00074117      -0.00078201       0.00568131
Al       2.91124018       1.65501209      12.31974550        5       0.00218497       0.00001584       0.00241864
Al       5.77797742       1.65426392      12.33058591        5       0.00059304      -0.00025855       0.00370261
Al       8.64838949       1.65455317      12.32540329        5      -0.00064707       0.00027621       0.00537415
Al       1.48103970       4.13348775      12.32627951        5       0.00193752       0.00147059       0.00555435
Al       4.34423605       4.13550070      12.32908997        5       0.00080772      -0.00005381       0.00311674
Al       7.21436379       4.13564565      12.32451245        5       0.00046894       0.00020902       0.00340909
Al      10.08055176       4.13572603      12.31887854        5      -0.00006928       0.00079650       0.00644187
Al       2.91396873       6.62161238      12.36381839        5       0.00056151       0.00118753       0.00089287
Al       5.78060865       6.62540162      12.34351010        5       0.00049652       0.00016676       0.00138246
Al       8.64757085       6.62389352      12.34457031        5       0.00069596       0.00090666       0.00099220
Al      11.50947160       6.62195421      12.36175488        5       0.00073811       0.00163605       0.00101175
Al       4.34976806       9.10378605      12.34202017        5       0.00018472      -0.00036851       0.00624267
Al       7.21233902       9.10362051      12.32956281        5       0.00074962      -0.00008101       0.00461301
Al      10.07357388       9.10163842      12.35173111        5       0.00173842       0.00032708       0.00142677
Al      12.93976314       9.10178362      12.36763745        5       0.00014858       0.00007576       0.00150421
Al       0.06281485      -0.00192703      14.65250401        4       0.00046619       0.00006872       0.00076941
Al       2.92234802      -0.00377176      14.65343708        4       0.00060962       0.00011221       0.00108639
Al       5.78385704      -0.00818290      14.68343261        4       0.00057530       0.00006637       0.00057845
Al       8.65346700      -0.00703915      14.67718449        4       0.00063612       0.00001014       0.00051409
Al       1.49043846       2.46686115      14.63140642        4       0.00052656       0.00017705       0.00099485
Al       4.34642456       2.46092256      14.63483535        4       0.00088262       0.00022691       0.00069771
Al       7.21638313       2.45916199      14.63292563        4       0.00063559       0.00027841       0.00058516
Al      10.08823120       2.46697242      14.63246047        4       0.00066947       0.00006920       0.00072572
Al       2.91482183       4.95339208      14.64787971        4       0.00061137       0.00022415       0.00082110
Al       5.77912808       4.95440276      14.61603589        4       0.00156309      -0.00000183       0.00231932
Al       8.66030726       4.95500002      14.62540921        4       0.00035536       0.00021241       0.00098371
Al      11.51635356       4.95601128      14.64352680        4       0.00070621       0.00015745       0.00126759
Al       4.35177690       7.44387496      14.67098051        4       0.00060030       0.00019799       0.00066470
Al       7.22122852       7.44906188      14.64962877        4       0.00071974      -0.00026864       0.00071128
Al      10.09374627       7.44924485      14.67721839        4       0.00029711      -0.00023007       0.00052207
Al      12.94568276       7.44830574      14.69310833        4       0.00068739      -0.00016546       0.00092399
Al       1.47864180       0.79500073      16.99131822        3       0.00081886       0.00040071       0.00120102
Al       4.33166191       0.78767749      17.00984641        3       0.00068512       0.00014362       0.00109964
Al       7.20719232       0.77344348      17.00676664        3       0.00032339       0.00036617       0.00123351
Al      10.08114961       0.79685499      16.99844847        3       0.00116897      -0.00081309       0.00104886
Al       2.90742078       3.26213119      16.94891702        3       0.00006152      -0.00002642       0.00142012
Al       5.77072331       3.26494421      16.93154867        3       0.00076923      -0.00033192       0.00084245
Al       8.65385533       3.26203744      16.92230621        3       0.00030151      -0.00005627       0.00129943
Al      11.52030026       3.27053749      16.96771582        3       0.00080094      -0.00064551      -0.00002862
Al       4.34098747       5.76685002      16.94985875        3       0.00033758       0.00041379       0.00102578
Al       7.21722833       5.76573307      16.93251184        3      -0.00071050       0.00063254      -0.00155116
Al      10.07827326       5.77773155      16.96702262        3       0.00546310       0.00076207      -0.00109179
Al      12.93272881       5.77114178      16.99901040        3       0.00074881       0.00018025       0.00104957
Al       5.78696537       8.26863252      16.98170758        3       0.00047647       0.00009443       0.00108276
Al       8.65441404       8.25914965      16.99195202        3       0.00062147       0.00017790       0.00110983
Al      11.51936682       8.25648372      17.06083137        3       0.00067118       0.00015577       0.00105613
Al      14.36548707       8.25777660      17.04326339        3       0.00066980       0.00008813       0.00110493
Al       0.03733118       1.58521962      19.35658884        2       0.00677152      -0.00111814      -0.01421709
Al       2.85809481       1.59421702      19.34624024        2      -0.00412078      -0.00060191      -0.00453470
Al       5.74702534       1.60540635      19.28692541        2      -0.00364770      -0.00307124      -0.00735569
Al       8.63092777       1.59640944      19.26628823        2       0.00040585      -0.00288436      -0.00349614
Al       1.47150210       4.08765416      19.28066619        2      -0.00122692      -0.00164980      -0.00458035
Al       4.29485119       4.08412561      19.20490759        2       0.00338729      -0.00434124       0.00238901
Al       7.20996954       4.08122168      19.17803117        2      -0.00153640       0.00290120       0.00371859
Al      10.07479230       4.08907400      19.19537393        2       0.00406909      -0.00157315      -0.00857947
Al       2.89297987       6.58336862      19.33283428        2      -0.00044923       0.00018047      -0.00821835
Al       5.76222347       6.61112776      19.21300385        2      -0.00161600      -0.00504059      -0.00134620
Al       8.62779098       6.58973612      19.24538441        2       0.00071355      -0.00059915      -0.01047751
Al      11.50534814       6.59263510      19.35682241        2       0.00119062      -0.00173644      -0.00655190
Al       4.33769410       9.05684333      19.38133059        2      -0.00072924       0.00024860       0.00091290
Al       7.20981603       9.08068155      19.33863473        2      -0.00139878       0.00278080      -0.00568285
Al      10.06456562       9.05667573      19.41790556        2       0.00011116       0.00016862      -0.00459646
Al      12.93373217       9.05692067      19.53188923        2       0.00023779      -0.00069723      -0.00070493
Al      -0.15502475      -0.19626826      22.03642050        1       0.00146672      -0.00152586      -0.00141183
Al       2.75776651      -0.06217169      22.05898288        1       0.00164607      -0.00220341       0.00144574
Al       5.57678273      -0.01006225      21.92269039        1      -0.00130957      -0.00109086      -0.00211494
Al       8.45178883      -0.00071244      21.97509347        1       0.00197050       0.00017720      -0.00133731
Al       1.42449461       2.54573363      22.11355360        1       0.00006160       0.00178727      -0.00049278
Al       4.28468608       2.46182444      21.58456629        1      -0.00342742      -0.00042259      -0.00251651
Al       7.12080659       2.47677205      21.59955079        1       0.00028825       0.00135239       0.00022206
Al      10.00557262       2.41380711      21.58340408        1       0.00383991       0.00232005      -0.00099388
Al       2.89957980       4.92352326      21.64540381        1      -0.00414287      -0.00103254      -0.00387388
Al       5.73197553       4.91938062      21.40025693        1      -0.00038200      -0.00158843       0.00324188
Al       8.52579658       4.86536147      21.57632306        1       0.00027662      -0.00074653      -0.00092302
Al      11.38987656       4.90309457      21.61820534        1      -0.00332688       0.00260129       0.00023594
Al       4.21554077       7.37909523      21.68847285        1      -0.00014265      -0.00854291      -0.00038914
Al       7.08106981       7.39096635      21.56540890        1       0.00058998      -0.00257412       0.00040326
Al       9.82143880       7.26518451      21.76149623        1      -0.00113823      -0.00088423       0.00128151
Al      12.82747279       7.32030448      22.11630128        1      -0.00220427      -0.00249974      -0.00324622
C        5.69404500       4.43233247      24.77817322        0       0.03209689       0.03221535       0.01166122
N        6.61522904       3.51695494      25.09367649        0      -0.02182622       0.00857627      -0.00838800
C        7.75063916       4.25864815      25.27888503        0      -0.04038700       0.01364443      -0.02039497
N        7.59773708       5.57278091      25.05966943        0       0.01194403      -0.00186788       0.00805677
N        6.26218568       5.67386987      24.79860548        0      -0.00729658      -0.00569023      -0.01196389
H        4.67159394       4.24999664      24.45822637        0      -0.02851270      -0.01288821       0.00502833
H        8.71548978       3.82970868      25.53888147        0       0.01471797      -0.00355975       0.00188485
H        5.88842211       6.49464687      24.31951088        0      -0.00380842      -0.00446935       0.00901982
