104
Lattice="11.45512985522207 0.0 0.0 5.727564927611035 9.92043345827187 0.0 0.0 0.0 31.691342951089922" Properties=species:S:1:pos:R:3:tags:I:1:forces:R:3 energy=-420.1295471191406 free_energy=-420.1295471191406 stress="0.009801661595702171 2.8172507882118225e-07 1.0523945093154907e-07 2.8172507882118225e-07 0.009840138256549835 2.3259781301021576e-06 1.0523945093154907e-07 2.3259781301021576e-06 0.01009153388440609" pbc="T T F"
Al       1.47943996       0.84999095       9.85345771        6       0.00189493       0.00094165       0.00158168
Al       4.34402491       0.85013843       9.87471533        6       0.00187477       0.00081838       0.00146061
Al       7.20488616       0.85071723       9.89325369        6       0.00191774       0.00083008       0.00135796
Al      10.06778137       0.85005901       9.86684129        6       0.00188871       0.00103567       0.00145414
Al       2.90990453       3.33485090       9.86894271        6       0.00181429       0.00081804       0.00128958
Al       5.77047637       3.33489507       9.87871239        6       0.00198090       0.00076613       0.00119381
Al       8.63262584       3.33628938       9.86707931        6       0.00206959       0.00065855       0.00127402
Al      11.49884187       3.33551991       9.85927474        6       0.00191900       0.00082721       0.00137324
Al       4.33647643       5.81178256       9.90851302        6       0.00189698       0.00108199       0.00112194
Al       7.19921072       5.81099355       9.89291467        6       0.00199506       0.00112921       0.00115315
Al      10.06379082       5.81233679       9.89485558        6       0.00200993       0.00099021       0.00123659
Al      12.92912579       5.81258324       9.90189853        6       0.00188498       0.00108192       0.00129567
Al       5.76958636       8.28978825       9.89227286        6       0.00196983       0.00102263       0.00129731
Al       8.63650625       8.28706559       9.88722442        6       0.00191177       0.00113413       0.00143912
Al      11.49898844       8.28604653       9.91743069        6       0.00199391       0.00120828       0.00138000
Al      14.36330898       8.28826943       9.92272741        6       0.00174714       0.00114203       0.00123046
Al       0.10349738       1.66861255      12.30523434        5       0.00006141       0.00006048      -0.00576383
Al       2.96292358       1.66598421      12.31347565        5       0.00155396       0.00135284      -0.00768377
Al       5.82611595       1.66462595      12.32485286        5       0.00190540       0.00189720      -0.00054349
Al       8.69950017       1.66633497      12.32109689        5      -0.00101868       0.00142517      -0.00302930
Al       1.53191114       4.15118545      12.31464096        5       0.00141637      -0.00054321      -0.00010952
Al       4.39074626       4.14858801      12.32111061        5       0.00217390      -0.00000850      -0.00502717
Al       7.26680533       4.14775944      12.31054386        5       0.00058938       0.00031847       0.00034055
Al      10.13653606       4.14952659      12.31119632        5      -0.00123836       0.00011504       0.00207479
Al       2.95989198       6.63699712      12.35715989        5       0.00155448       0.00017615      -0.00697111
Al       5.82826030       6.63776137      12.33112093        5       0.00088337       0.00053453      -0.00095682
Al       8.69972174       6.63956868      12.32924936        5       0.00009734      -0.00094225      -0.00055376
Al      11.55973793       6.63450920      12.35516342        5       0.00076502       0.00132161      -0.00090060
Al       4.39658053       9.11577139      12.33845813        5       0.00023503      -0.00024088      -0.00176033
Al       7.26243454       9.11714948      12.32901937        5       0.00037943      -0.00052738      -0.00543948
Al      10.12336312       9.11633857      12.35195028        5       0.00234521      -0.00024971      -0.00624450
Al      12.98607690       9.11510286      12.36834589        5       0.00037481      -0.00038089      -0.00510197
Al       0.10137609      -0.00190512      14.65066140        4       0.00234934       0.00014690      -0.00064545
Al       2.97136618       0.00125405      14.66903160        4      -0.00066365      -0.00222141      -0.01822260
Al       5.83231343      -0.00225470      14.69800981        4      -0.00105967       0.00057299      -0.00879281
Al       8.69672451      -0.00311216      14.68816494        4      -0.00169314      -0.00282838      -0.01478959
Al       1.53469405       2.47271405      14.62419208        4       0.00190171       0.00085091       0.00005981
Al       4.39340203       2.47441191      14.63462547        4       0.00376385      -0.00011657      -0.00074970
Al       7.27007938       2.46387032      14.63024641        4       0.00119379       0.00205349       0.00135470
Al      10.13892448       2.47172165      14.64229211        4      -0.00661333      -0.00202119      -0.01606860
Al       2.95889429       4.96422113      14.64658540        4       0.00400939      -0.00194289      -0.00516051
Al       5.83441566       4.95845450      14.61242689        4       0.00098182       0.00062363       0.00196387
Al       8.71447232       4.96227860      14.62344736        4      -0.00116893      -0.00203646      -0.00098602
Al      11.57161893       4.96168982      14.66682513        4      -0.00370400      -0.00414004      -0.02981112
Al       4.39232378       7.45183497      14.67078901        4       0.00300830       0.00013278      -0.00064521
Al       7.27085781       7.44320322      14.64946870        4       0.00080049       0.00233063      -0.00023147
Al      10.13789124       7.45093036      14.67778498        4       0.00185673       0.00136755       0.00057519
Al      12.99538050       7.44839007      14.70749194        4       0.00116021       0.00111128      -0.00014263
Al       1.51813526       0.76436608      16.97164869        3      -0.00713508       0.02077880       0.02080189
Al       4.36548017       0.76969291      17.02301443        3       0.00681717       0.00432894      -0.00521577
Al       7.23913127       0.75984911      17.02470126        3       0.00144335       0.00153003       0.00088523
Al      10.10351947       0.75683222      16.99791160        3       0.00734238       0.01180186       0.02624518
Al       2.95161732       3.24782146      16.94450266        3      -0.01979499      -0.01323161       0.00765088
Al       5.80881933       3.25363084      16.94916527        3       0.00502069      -0.01231448      -0.01417438
Al       8.68618805       3.24905446      16.94965655        3      -0.00465564      -0.01463662      -0.03012476
Al      11.55534379       3.23516766      16.95517683        3       0.00185830       0.00129474       0.00119718
Al       4.36448002       5.74917807      16.95399608        3       0.00650243       0.00039702      -0.00370199
Al       7.25167895       5.74965900      16.91388561        3      -0.00220550      -0.00163765       0.00603255
Al      10.12639608       5.76601202      16.96037397        3       0.00695143      -0.00189325       0.00104968
Al      12.98579586       5.73860760      17.01308855        3      -0.01963721       0.00753586      -0.00723947
Al       5.80972066       8.23621760      17.00172507        3       0.00044472       0.00238594      -0.00329997
Al       8.68393512       8.24363723      17.00502127        3       0.00218236      -0.00234524      -0.00524898
Al      11.56768051       8.23813871      17.07759479        3      -0.00322313      -0.00385683      -0.00345647
Al      14.40630924       8.22965067      17.07699067        3       0.00087338       0.00363536      -0.00150249
Al       0.05429127       1.54891854      19.32180217        2       0.01237433       0.00889008       0.02100657
Al       2.86727181       1.54352375      19.35362998        2       0.00121358       0.00356322       0.00242683
Al       5.74993880       1.55680454      19.31600099        2       0.00661251       0.00678631      -0.00008515
Al       8.61944594       1.55624974      19.30343955        2       0.00557959       0.00184772       0.01096755
Al       1.48292899       4.03331588      19.27684807        2      -0.00102759       0.00020604       0.01020922
Al       4.32184927       4.03252490      19.21284805        2       0.00419937       0.00680711       0.00883899
Al       7.22934094       4.05629876      19.19993014        2      -0.01081038      -0.00502878       0.02336152
Al      10.10645927       4.05657650      19.19101611        2      -0.00585174      -0.00007822       0.04221723
Al       2.91380546       6.53825897      19.33423705        2      -0.00062315       0.00227407      -0.00409318
Al       5.76307765       6.54941663      19.21860394        2       0.00657699      -0.00967645       0.00793007
Al       8.65078748       6.53663641      19.21713264        2       0.00047897       0.00355684       0.02624421
Al      11.53302748       6.53238468      19.37012864        2      -0.00601798       0.00160806       0.00665611
Al       4.35181947       9.02036315      19.46167751        2       0.00260040       0.00351671      -0.00533234
Al       7.21303424       9.04142384      19.33371688        2       0.00288577       0.00167812       0.00883897
Al      10.07353778       9.01209879      19.38218912        2      -0.00116714      -0.00516017       0.02232814
Al      12.93672868       9.00977855      19.54362819        2       0.00182614       0.00125803       0.00103275
Al      -0.15826799      -0.27231181      22.02789232        1       0.00450871       0.01098784      -0.01172783
Al       2.74517900      -0.16522679      22.11137009        1      -0.00574937       0.00344192      -0.00391032
Al       5.50630301      -0.05982656      21.88854562        1       0.01618998       0.00124838      -0.00257399
Al       8.48070360      -0.05137439      22.01962603        1       0.00091721       0.00177140      -0.00386830
Al       1.43295739       2.47812098      22.02477064        1      -0.00581999      -0.00306949       0.00065346
Al       4.25110256       2.43659063      21.58716337        1       0.01128265       0.00803413       0.01037902
Al       7.11034933       2.43409160      21.65290903        1       0.00142196      -0.01071614      -0.03349986
Al      10.03365692       2.39704654      21.55397756        1      -0.00864413      -0.02023190       0.03487556
Al       2.80536827       4.86516015      21.59678448        1       0.01101907       0.00687765       0.00736385
Al       5.70172277       4.85866940      21.46877465        1      -0.00316761      -0.00166378       0.00161731
Al       8.48785169       4.82750414      21.59311279        1      -0.01821913      -0.01294307      -0.02646738
Al      11.26741662       4.91179263      21.73766004        1       0.00953219      -0.00073498       0.00670887
Al       4.21570315       7.27127671      21.73097412        1      -0.00198321      -0.00049898      -0.01268938
Al       7.04280631       7.33613693      21.54107093        1      -0.00421565      -0.01513500       0.00135831
Al       9.73782084       7.23982615      21.80601777        1       0.01898400       0.01369437      -0.00194980
Al      12.81554915       7.31214396      22.00783333        1      -0.00327933      -0.00087171      -0.00405675
C        5.33238216       4.82724068      24.86539113        0       0.11098179      -0.02810598       0.00367248
N        6.05568819       3.73612046      25.14441915        0       0.10099530       0.14375843      -0.02775185
C        7.33802257       4.21956706      25.24299306        0      -0.19722006       0.12438621      -0.02886833
N        7.45750156       5.53988467      25.01441011        0      -0.24224788      -0.12945932       0.02204338
N        6.15178073       5.91937705      24.83113698        0       0.10252094      -0.21644336       0.05775397
H        4.27150006       4.86259625      24.61720920        0       0.08966205       0.00852216       0.02908527
H        8.20743678       3.59875002      25.46121183        0      -0.03089403       0.01508648      -0.03918294
H        5.92808318       6.80387081      24.37986850        0      -0.00718315       0.06255664      -0.03259201
