104
Lattice="11.45512985522207 0.0 0.0 5.727564927611035 9.92043345827187 0.0 0.0 0.0 31.691342951089922" Properties=species:S:1:pos:R:3:tags:I:1:forces:R:3 energy=-420.02838134765625 free_energy=-420.02838134765625 stress="0.00857660360634327 1.932494342327118e-07 4.470348358154297e-08 1.932494342327118e-07 0.008624219335615635 2.0363368093967438e-06 4.470348358154297e-08 2.0363368093967438e-06 0.008832337334752083" pbc="T T F"
Al       1.55364954       0.85496664       9.89733396        6       0.00017699      -0.00009629       0.00109118
Al       4.41880009       0.85597990       9.91650762        6       0.00020166      -0.00023950       0.00093683
Al       7.27845866       0.85528521       9.92916018        6       0.00027444      -0.00027636       0.00071460
Al      10.14143295       0.85487891       9.90690682        6       0.00027038      -0.00016318       0.00113593
Al       2.98380529       3.33847336       9.89784689        6       0.00019857      -0.00011291       0.00114909
Al       5.84551996       3.34053678       9.91046171        6       0.00034029      -0.00024938       0.00102200
Al       8.70763423       3.33966179       9.89700063        6       0.00032721      -0.00015733       0.00128445
Al      11.57220194       3.33889593       9.88810212        6       0.00030783      -0.00016903       0.00132643
Al       4.41150767       5.81847990       9.93209599        6       0.00033227      -0.00012927       0.00086369
Al       7.27534221       5.81957333       9.92235162        6       0.00034875      -0.00014936       0.00123770
Al      10.13854767       5.81867346       9.92076700        6       0.00031901      -0.00019136       0.00116707
Al      13.00373931       5.81784134       9.92265543        6       0.00025379      -0.00019054       0.00103653
Al       5.84500332       8.29410539       9.93055538        6       0.00030324       0.00001483       0.00110355
Al       8.71039207       8.29518451       9.93013573        6       0.00032631      -0.00003917       0.00109140
Al      11.57325939       8.29364021       9.94837889        6       0.00029780      -0.00009108       0.00084950
Al      14.43581591       8.29367592       9.95440589        6       0.00027545      -0.00002333       0.00071284
Al       0.15535305       1.66618140      12.31235574        5       0.00038966      -0.00069962       0.00412679
Al       3.01682149       1.66621259      12.31444502        5       0.00045227      -0.00036363       0.00693120
Al       5.88339334       1.66668373      12.33515601        5       0.00013794      -0.00183669       0.00019704
Al       8.74627700       1.66704535      12.32790431        5       0.00076693      -0.00186803       0.00044137
Al       1.58363370       4.14426244      12.32316547        5       0.00058106      -0.00118388       0.00033412
Al       4.45120115       4.14558442      12.32726362        5       0.00020457      -0.00087357       0.00235644
Al       7.31781178       4.14846175      12.33222330        5       0.00021049      -0.00143933      -0.00197965
Al      10.17814246       4.14522710      12.32618059        5       0.00016853      -0.00134769      -0.00415253
Al       3.02034517       6.62515446      12.34987646        5      -0.00082216       0.00052626       0.00425171
Al       5.88682099       6.63043883      12.35311468        5      -0.00026069      -0.00135351      -0.00447101
Al       8.74884521       6.63060248      12.35185955        5       0.00095885      -0.00078041       0.00198718
Al      11.60874150       6.62366224      12.35370049        5       0.00101792       0.00162573      -0.00023425
Al       4.45335034       9.10996528      12.35501830        5      -0.00043900       0.00001964      -0.00042074
Al       7.31387251       9.10872386      12.33734390        5       0.00100342       0.00036326       0.00517335
Al      10.17829137       9.10731021      12.35913026        5       0.00096910      -0.00041588      -0.00035394
Al      13.04445570       9.10901907      12.36706086        5      -0.00018292      -0.00098399      -0.00123059
Al       0.16601918      -0.00167603      14.66112037        4      -0.00143338      -0.00104708      -0.00043924
Al       3.02215451      -0.00379710      14.65225242        4      -0.00029076      -0.00142409       0.00228767
Al       5.88705603      -0.00448857      14.66936395        4      -0.00163868      -0.00436479       0.00552942
Al       8.75088211      -0.00552800      14.67702257        4       0.00013645       0.00001125       0.00132848
Al       1.58880379       2.46216281      14.63142639        4      -0.00022096      -0.00029559       0.00085389
Al       4.45110486       2.45723938      14.63136999        4      -0.00111752      -0.00006082       0.00160918
Al       7.31841977       2.46729502      14.63831829        4      -0.00093966      -0.00224105       0.00041532
Al      10.18476219       2.45820984      14.62330179        4      -0.00035325       0.00046645       0.00249589
Al       3.00947742       4.93505617      14.63457009        4       0.00018374       0.00084484       0.00177099
Al       5.88139237       4.94692209      14.63806945        4       0.00019786       0.00003689       0.00137909
Al       8.75814569       4.94903253      14.64645519        4      -0.00002465       0.00010997       0.00132420
Al      11.60708305       4.94847144      14.64161144        4       0.00025029      -0.00078424       0.00093521
Al       4.45236749       7.43635640      14.66467147        4      -0.00267003      -0.00196339      -0.00145496
Al       7.32424264       7.44741056      14.66529673        4       0.00072605      -0.00323465      -0.00046758
Al      10.19875600       7.43901948      14.68319983        4      -0.00229208      -0.00000168       0.00168738
Al      13.03711234       7.43701877      14.66695137        4       0.00023397      -0.00221340       0.00428471
Al       1.55085570       0.74876844      17.01216446        3      -0.00019249      -0.00132787      -0.00344285
Al       4.39716486       0.71989898      17.00565769        3       0.00173680       0.00245312       0.00231735
Al       7.27226416       0.72393773      17.02236486        3      -0.00010257       0.00057593       0.00057617
Al      10.16354435       0.74845219      17.01024837        3      -0.01290619       0.00134039      -0.00635884
Al       2.96114010       3.20768997      16.96079523        3       0.00059306      -0.00015256       0.00128930
Al       5.82669517       3.19778296      16.94576738        3       0.00171518       0.00099535       0.00134262
Al       8.70779679       3.20001229      16.94976613        3       0.01186161       0.00580833       0.00847107
Al      11.57736145       3.21315587      16.95696166        3      -0.00880237      -0.00305693       0.00425609
Al       4.39425393       5.70063873      16.94784827        3       0.00035232       0.00032600      -0.00065956
Al       7.29284244       5.70903606      16.95067007        3      -0.00563134      -0.00104167      -0.00629860
Al      10.16430368       5.71217869      16.98886294        3      -0.01235720      -0.00258810      -0.00360948
Al      12.98050371       5.69233471      16.98010038        3       0.01080485       0.01161490       0.00021692
Al       5.84910781       8.20546990      16.97579843        3       0.00159586      -0.00281694       0.00296101
Al       8.72386348       8.20332147      17.02180638        3      -0.00107609      -0.00154505      -0.00507588
Al      11.57259375       8.19266306      17.08445997        3       0.00086397      -0.00019065       0.00056598
Al      14.42033816       8.19625966      16.99819287        3      -0.00050217      -0.00096010       0.00205014
Al       0.07636563       1.52828123      19.38487586        2      -0.00036350      -0.00077284      -0.00090198
Al       2.90294918       1.51647776      19.34650092        2      -0.00024936       0.00173540       0.00292533
Al       5.75910569       1.51372690      19.30470603        2       0.00034569       0.00076256      -0.00524696
Al       8.68470215       1.50943525      19.31178264        2      -0.00554238       0.00225938       0.00207052
Al       1.47406434       3.98602086      19.28098346        2       0.00407783      -0.00280554       0.00228597
Al       4.33111532       3.99813756      19.22917352        2       0.00155707      -0.00089410       0.01079516
Al       7.22616857       4.00789035      19.20953051        2       0.00038538      -0.00160926      -0.00721112
Al      10.12566808       4.00675209      19.25695043        2      -0.00240459      -0.00093219      -0.00063906
Al       2.90077949       6.48644547      19.27390111        2       0.00098773      -0.00078018      -0.00267003
Al       5.78023343       6.48175627      19.21958803        2       0.00110664       0.00169102      -0.00612092
Al       8.68206545       6.50159591      19.24826585        2      -0.00069665       0.00032055      -0.00657265
Al      11.52589092       6.46399639      19.39610207        2      -0.00208344      -0.00051623      -0.00210511
Al       4.37603425       8.96729278      19.28498232        2       0.00047962       0.00227418       0.00945895
Al       7.23587421       9.00051063      19.32615630        2      -0.00127933      -0.00114158      -0.00662872
Al      10.08161183       8.96353060      19.47149880        2       0.00092278       0.00040127       0.00070899
Al      12.96097403       8.98215290      19.47760178        2       0.00099548       0.00019173       0.00025778
Al      -0.07400019      -0.24898959      21.79836794        1      -0.00351471       0.00338609      -0.00323640
Al       2.66497387      -0.19575010      22.11128691        1       0.00323403       0.00167611      -0.00406741
Al       5.63978125      -0.12267334      21.92499056        1      -0.00352597      -0.00052007       0.00757210
Al       8.56007670      -0.14721477      22.03002124        1      -0.00109356      -0.00248253       0.00202148
Al       1.38249997       2.37522180      22.00891184        1       0.00259933       0.00070062       0.00304011
Al       4.26027887       2.37128920      21.65322946        1      -0.00060215      -0.00187253      -0.01189646
Al       7.10974854       2.34968799      21.56995342        1       0.00313919       0.00407293       0.00769869
Al       9.95537080       2.32577194      21.72512409        1      -0.00313979       0.00068903      -0.00349120
Al       2.79866259       4.81590599      21.58530392        1       0.00588191      -0.00152526      -0.00455076
Al       5.67203833       4.81305821      21.53765735        1       0.00093273      -0.00229851      -0.01306379
Al       8.45495127       4.80287834      21.56769279        1       0.00420513      -0.00009547      -0.00238238
Al      11.25486972       4.83989804      21.98700980        1       0.00733249       0.00481171      -0.00349714
Al       4.21630586       7.28495244      21.59258351        1       0.00249514      -0.00334760      -0.00201815
Al       7.01157598       7.25044101      21.57577754        1       0.00373857       0.00190097      -0.00590162
Al       9.71723281       7.25940454      21.90437271        1       0.00101546      -0.00474016      -0.00092224
Al      12.79436825       7.25723423      21.80576017        1      -0.00030701       0.00027602      -0.00129502
C        4.88691204       5.26016006      24.85800295        0      -0.02400755      -0.00769435      -0.01320659
N        5.46166264       4.05572283      24.93430261        0      -0.00241916       0.00810270       0.00076723
C        6.79822501       4.34390121      25.01401685        0       0.01391377       0.00269471       0.00539418
N        7.09073331       5.65048891      24.96062339        0      -0.01913583       0.01328837       0.01202867
N        5.84804257       6.22573231      24.91123239        0       0.01898454      -0.01278141      -0.00906779
H        3.83360812       5.47031995      24.68204525        0       0.03696660      -0.00584578       0.01508766
H        7.58365542       3.58669405      25.04329510        0      -0.03003874       0.02008981      -0.00751263
H        5.74397994       7.17100467      24.54411526        0      -0.00330014       0.00092902      -0.00972198
