104
Lattice="11.45512985522207 0.0 0.0 5.727564927611035 9.92043345827187 0.0 0.0 0.0 31.691342951089922" Properties=species:S:1:pos:R:3:tags:I:1:forces:R:3 energy=-420.03057861328125 free_energy=-420.03057861328125 stress="0.008567864075303078 1.6810372471809387e-07 3.306195139884949e-08 1.6810372471809387e-07 0.008615141734480858 1.9851140677928925e-06 3.306195139884949e-08 1.9851140677928925e-06 0.008817078545689583" pbc="T T F"
Al       1.55974825       0.85479137       9.89768444        6       0.00017045      -0.00005441       0.00129571
Al       4.42509620       0.85504489       9.91660726        6       0.00013963      -0.00010516       0.00116698
Al       7.28480979       0.85438453       9.92872025        6       0.00023548      -0.00006179       0.00091292
Al      10.14773476       0.85492510       9.90755228        6       0.00023391      -0.00005858       0.00117232
Al       2.98980775       3.33788623       9.89815635        6       0.00017235      -0.00010140       0.00126073
Al       5.85249610       3.33940299       9.91089351        6       0.00023537      -0.00012301       0.00104633
Al       8.71433016       3.33885069       9.89800157        6       0.00024573      -0.00005105       0.00116135
Al      11.57870817       3.33800479       9.88885225        6       0.00027908      -0.00007375       0.00130016
Al       4.41832743       5.81881138       9.93292973        6       0.00021122      -0.00016072       0.00086779
Al       7.28210786       5.81980025       9.92413942        6       0.00028750      -0.00014030       0.00108736
Al      10.14517534       5.81821111       9.92229372        6       0.00027360      -0.00002571       0.00115295
Al      13.01003348       5.81780055       9.92372242        6       0.00020950      -0.00010438       0.00116245
Al       5.85173760       8.29470640       9.93184466        6       0.00022117       0.00001315       0.00105965
Al       8.71699368       8.29575126       9.93133240        6       0.00026082      -0.00005280       0.00122869
Al      11.58012207       8.29459707       9.94908269        6       0.00018409      -0.00007580       0.00105602
Al      14.44179044       8.29462274       9.95515520        6       0.00023063      -0.00008578       0.00074256
Al       0.15863079       1.66313340      12.32197394        5       0.00078350      -0.00228204      -0.00069967
Al       3.01909800       1.66209815      12.32699371        5       0.00125770      -0.00195072       0.00076241
Al       5.88779123       1.65979332      12.33817674        5      -0.00051079      -0.00066030       0.00263669
Al       8.75495802       1.66370575      12.33254141        5      -0.00154121      -0.00273142       0.00086287
Al       1.58568504       4.13757626      12.33192990        5       0.00095887       0.00110968      -0.00369021
Al       4.45209040       4.13749107      12.33082388        5       0.00025501       0.00038238       0.00081393
Al       7.32328235       4.13952467      12.32800930        5      -0.00058223       0.00028586       0.00368278
Al      10.18377516       4.13660687      12.32213093        5       0.00046973       0.00196745       0.00440962
Al       3.02200002       6.62186925      12.35815470        5      -0.00142580      -0.00096703      -0.00468816
Al       5.89032890       6.62185325      12.34879152        5      -0.00014843       0.00081022      -0.00067655
Al       8.75367358       6.62489493      12.35667189        5       0.00135086      -0.00035271      -0.00332936
Al      11.61211752       6.62125964      12.35964931        5       0.00069548      -0.00034917      -0.00187285
Al       4.45782536       9.10642941      12.35619976        5      -0.00089317      -0.00076729      -0.00209775
Al       7.31881573       9.10611397      12.34811866        5       0.00097717      -0.00050904      -0.00121952
Al      10.18339996       9.10281749      12.36656642        5      -0.00018014       0.00051582      -0.00161609
Al      13.04746057       9.10491143      12.37077126        5      -0.00009424      -0.00042072      -0.00122401
Al       0.16381682      -0.00640322      14.66182144        4      -0.00036162      -0.00048426       0.00068124
Al       3.02410656      -0.00784862      14.66731739        4       0.00013758      -0.00030621       0.00115244
Al       5.89049461      -0.01385886      14.68509567        4      -0.00043883      -0.00049689       0.00156154
Al       8.75448580      -0.00535542      14.68197548        4      -0.00254215      -0.00364069      -0.00441189
Al       1.58934551       2.45848889      14.63702905        4      -0.00017898      -0.00002739       0.00100614
Al       4.45190414       2.45425772      14.63763197        4      -0.00020738       0.00008534       0.00151783
Al       7.31774182       2.45705117      14.64057592        4       0.00046253       0.00025202       0.00198330
Al      10.18863950       2.46255995      14.63914819        4      -0.00137702      -0.00046950       0.00016529
Al       3.01102992       4.93492534      14.64220567        4       0.00010725       0.00044677       0.00145207
Al       5.88071086       4.93960061      14.63807500        4       0.00030036      -0.00011418       0.00056760
Al       8.75874456       4.94576572      14.64789554        4      -0.00198247      -0.00280055      -0.00373499
Al      11.60981834       4.94568967      14.65726239        4       0.00016583      -0.00120825      -0.00102487
Al       4.44878385       7.42687162      14.65961229        4       0.00010766       0.00025422       0.00120342
Al       7.32939418       7.43760646      14.66486124        4      -0.00487051      -0.00536416      -0.00875501
Al      10.19899158       7.43593721      14.69199849        4      -0.00084268      -0.00010144       0.00074361
Al      13.03807839       7.43105539      14.67200729        4       0.00022355      -0.00076882       0.00354048
Al       1.55719301       0.74717414      17.00922858        3      -0.01072106      -0.00226240      -0.01205364
Al       4.40735765       0.72722007      17.01724649        3       0.00017757       0.00027442       0.00152118
Al       7.27515341       0.72173719      17.02514014        3      -0.00013960       0.00212706       0.00057867
Al      10.14975558       0.74475504      17.00097671        3       0.00045352       0.00037567       0.00171934
Al       2.96461554       3.20810593      16.95948200        3       0.00030382       0.00027569       0.00160773
Al       5.83232437       3.20080629      16.95464751        3       0.00170793      -0.00008414      -0.00121702
Al       8.72668490       3.21154227      16.96593772        3      -0.01002066      -0.00731369      -0.00617393
Al      11.57290747       3.20465907      16.96917460        3       0.00026455       0.00033065       0.00155934
Al       4.39947306       5.70014957      16.94957751        3      -0.00017366      -0.00010293       0.00003861
Al       7.28648793       5.70531242      16.93742134        3      -0.00230596      -0.00090539       0.00067416
Al      10.14948336       5.70900804      16.98560393        3       0.00977076       0.00061946       0.00032473
Al      12.98873590       5.69885316      16.99082345        3       0.00010613       0.00040574       0.00119094
Al       5.85229184       8.19770976      16.96783849        3       0.00004565       0.00021338       0.00158807
Al       8.72332382       8.19492179      17.00510595        3       0.00276522       0.00437608       0.00177796
Al      11.57818981       8.19153375      17.09383240        3       0.00014094      -0.00024800       0.00075943
Al      14.42109789       8.19536800      17.00022566        3      -0.00046488      -0.00223527       0.00164578
Al       0.06533932       1.51634897      19.38773194        2       0.00221426       0.00207488      -0.00251407
Al       2.89578068       1.51188640      19.34432728        2       0.00275430      -0.00129101       0.00271795
Al       5.76873811       1.51279250      19.30635839        2       0.00109884      -0.00134698       0.00163939
Al       8.67677913       1.50864247      19.31810036        2      -0.00489313       0.00035700      -0.00144002
Al       1.47918966       3.96953436      19.28818642        2       0.00234521       0.00097854       0.00256336
Al       4.33353677       3.98999400      19.24512617        2      -0.00055849       0.00008437      -0.00567889
Al       7.22486024       4.00563927      19.20562162        2       0.00341948      -0.00049525       0.00245581
Al      10.12731657       3.99942357      19.26043166        2      -0.00045091      -0.00045825      -0.00114186
Al       2.90338158       6.47333707      19.27269494        2      -0.00075264       0.00108497      -0.00459177
Al       5.78495009       6.48645997      19.21693249        2       0.00130704      -0.00048750      -0.00379754
Al       8.68151099       6.49952969      19.21966136        2      -0.00356098       0.00161317       0.01415921
Al      11.52724904       6.45952095      19.40452644        2      -0.00213578      -0.00103191      -0.00620963
Al       4.37697938       8.96657587      19.27759348        2      -0.00022024       0.00212828       0.00928455
Al       7.23360653       9.00015810      19.29992154        2      -0.00045337      -0.00213305       0.00003935
Al      10.09345406       8.96511169      19.47462138        2      -0.00053427      -0.00059039       0.00063308
Al      12.97135234       8.98064720      19.48219705        2       0.00031798       0.00014589       0.00120977
Al      -0.08377227      -0.24885638      21.77199452        1      -0.00132071       0.00903739      -0.00217220
Al       2.66626510      -0.18289253      22.10772894        1       0.00050416      -0.00229344      -0.00427250
Al       5.62928923      -0.13646061      21.97512700        1      -0.00159618       0.00038253       0.00470416
Al       8.55232133      -0.17684381      22.04228860        1       0.00022911      -0.00106202       0.00298501
Al       1.39337561       2.36937213      22.04795811        1       0.00012335       0.00031146       0.00264519
Al       4.25029484       2.35015076      21.62856801        1       0.00447103       0.00053975      -0.00159364
Al       7.10874740       2.36109443      21.58932790        1       0.00004889      -0.00280047       0.00032814
Al       9.93237677       2.33832012      21.71578013        1      -0.00102852      -0.00130540       0.00015877
Al       2.81914065       4.80065578      21.58077698        1       0.00280893       0.00189288      -0.00283604
Al       5.67471907       4.81126024      21.51554583        1       0.00622722      -0.00167887       0.00240133
Al       8.47464592       4.81007389      21.56185347        1      -0.00054090      -0.00358755      -0.00356471
Al      11.29076045       4.83280238      21.99674312        1       0.00474750       0.00466190      -0.00064618
Al       4.21684159       7.29230571      21.55503479        1       0.00415789      -0.00620073       0.00500800
Al       7.02414474       7.25961975      21.56378459        1       0.00209933       0.00200960      -0.00584036
Al       9.72048388       7.24340082      21.90192598        1       0.00171964      -0.00120720      -0.00018157
Al      12.79537217       7.24606358      21.79665462        1       0.00131982       0.00259894      -0.00182152
C        4.85362712       5.31351673      24.82368336        0      -0.00964660       0.00483936      -0.00060565
N        5.40848867       4.10161024      24.90913761        0      -0.00315106      -0.01100960       0.00375045
C        6.74757505       4.36961102      25.00871702        0       0.00259544      -0.00545539       0.00362068
N        7.06081457       5.67105164      24.96169408        0       0.00134993       0.01462480      -0.00174581
N        5.82951477       6.26341978      24.88153397        0      -0.00119248       0.01450854       0.00130868
H        3.80405252       5.54026490      24.65543130        0      -0.00196279       0.00218150      -0.00646749
H        7.51656842       3.59827817      25.04155213        0       0.00415066      -0.00009674       0.00113597
H        5.74324730       7.20755193      24.50709124        0      -0.00158407       0.00455275      -0.00854493
