104
Lattice="11.45512985522207 0.0 0.0 5.727564927611035 9.92043345827187 0.0 0.0 0.0 31.691342951089922" Properties=species:S:1:pos:R:3:tags:I:1:forces:R:3 energy=-419.7403564453125 free_energy=-419.7403564453125 stress="0.007472535129636526 6.747432053089142e-07 -1.5832483768463135e-08 6.747432053089142e-07 0.007523024454712868 1.2814998626708984e-06 -1.5832483768463135e-08 1.2814998626708984e-06 0.007646115496754646" pbc="T T F"
Al       1.61368595       0.85454537       9.93406592        6       0.00034032      -0.00059270      -0.00012292
Al       4.47911570       0.85305183       9.94986581        6       0.00028096      -0.00052760      -0.00018662
Al       7.33946403       0.85229691       9.95412085        6       0.00028882      -0.00050986      -0.00032961
Al      10.20232631       0.85456096       9.94045632        6       0.00033801      -0.00070289      -0.00037478
Al       3.04338684       3.33568686       9.92657605        6       0.00035314      -0.00064588      -0.00014910
Al       5.90908533       3.33604646       9.93762515        6       0.00022659      -0.00061946      -0.00038195
Al       8.77081091       3.33605836       9.92717764        6       0.00031375      -0.00067647      -0.00031196
Al      11.63428181       3.33555565       9.91885860        6       0.00035150      -0.00064588      -0.00005994
Al       4.47378070       5.81829861       9.95192856        6       0.00021381      -0.00085676      -0.00086399
Al       7.33934137       5.82011519       9.95124036        6       0.00021970      -0.00086671      -0.00107063
Al      10.20217924       5.81799907       9.94939229        6       0.00039816      -0.00068929      -0.00063671
Al      13.06469316       5.81740522       9.94776501        6       0.00026695      -0.00074974      -0.00039536
Al       5.90772713       8.29664599       9.96210951        6       0.00022540      -0.00071933      -0.00119679
Al       8.77320176       8.29833728       9.96692135        6       0.00038277      -0.00078626      -0.00067690
Al      11.63558215       8.29687950       9.97580095        6       0.00022812      -0.00083083      -0.00054275
Al      14.49493483       8.29623810       9.97665217        6       0.00028361      -0.00088859      -0.00114337
Al       0.19810251       1.64318096      12.34210064        5      -0.00062995      -0.00100959      -0.00111570
Al       3.06070409       1.64085345      12.34797090        5      -0.00161818      -0.00054660       0.00133010
Al       5.92021972       1.63773531      12.36135667        5       0.00081799      -0.00048314       0.00032493
Al       8.78787063       1.64217032      12.35110663        5       0.00039592      -0.00034478      -0.00175047
Al       1.62581848       4.11912005      12.34225246        5      -0.00092602      -0.00176573      -0.00311408
Al       4.48545723       4.11570582      12.34334677        5       0.00005495      -0.00069101      -0.00148200
Al       7.35437015       4.11538807      12.33915956        5       0.00141952       0.00032096       0.00045944
Al      10.22493305       4.11919747      12.33964549        5      -0.00182951      -0.00151192      -0.00296414
Al       3.05004800       6.59890852      12.36278453        5       0.00081061      -0.00004397      -0.00260021
Al       5.92001585       6.59931998      12.34303550        5       0.00210382      -0.00047386       0.00377486
Al       8.80107285       6.60401315      12.35247297        5      -0.00322800      -0.00190894       0.00286136
Al      11.65171224       6.60273844      12.37504653        5      -0.00026497      -0.00116573      -0.00316468
Al       4.49060662       9.08299144      12.35580580        5       0.00022935       0.00079721      -0.00038668
Al       7.36272814       9.08721996      12.35682873        5      -0.00149927      -0.00094180       0.00152940
Al      10.22288357       9.08620440      12.38737695        5      -0.00030347      -0.00138921      -0.00323735
Al      13.07824826       9.08372541      12.38358471        5       0.00028584      -0.00089000      -0.00246865
Al       0.17767887      -0.04122568      14.65064987        4       0.00078050      -0.00025255       0.00043954
Al       3.05058943      -0.03988962      14.68537910        4      -0.00051081      -0.00073546      -0.00065944
Al       5.91605451      -0.04855342      14.71191959        4      -0.00107471      -0.00075331      -0.00025817
Al       8.77682343      -0.03393803      14.66382276        4      -0.00037841      -0.00234960       0.00390859
Al       1.61436520       2.44097731      14.65163743        4      -0.00057901      -0.00174356      -0.00040425
Al       4.47445517       2.43201543      14.66109183        4      -0.00144959      -0.00341516      -0.00228526
Al       7.34455015       2.43073321      14.65814131        4       0.00014863      -0.00077858       0.00011839
Al      10.20675359       2.44363648      14.65344003        4       0.00026251      -0.00191666      -0.00028938
Al       3.03668433       4.91691999      14.65221606        4      -0.00210121      -0.00377585      -0.00365927
Al       5.90525898       4.90998128      14.63606424        4       0.00047288      -0.00054765       0.00002961
Al       8.77556307       4.91250697      14.63942781        4       0.00065980      -0.00051869       0.00042603
Al      11.63275950       4.91531740      14.65487102        4       0.00000352      -0.00053911       0.00014470
Al       4.47058855       7.39877478      14.64661103        4       0.00051826      -0.00034254       0.00058633
Al       7.34971105       7.39020112      14.63833665        4       0.00020285       0.00209575       0.00247152
Al      10.20346512       7.40264408      14.69302906        4       0.00430813      -0.00035584       0.00151431
Al      13.06343584       7.40288070      14.69171043        4      -0.00195144      -0.00115660      -0.00056123
Al       1.55180159       0.72911163      16.98225513        3       0.00254172      -0.00108576       0.00057206
Al       4.41837384       0.70521644      17.03963561        3       0.00356200      -0.00524972      -0.00371615
Al       7.29399126       0.70665061      17.02792132        3       0.00029128      -0.00167727       0.00024323
Al      10.16340695       0.72557572      16.99822921        3      -0.00282039      -0.00218660      -0.00115306
Al       2.98701796       3.18423125      16.97937524        3      -0.00425983      -0.00353452      -0.00406864
Al       5.85708520       3.17191126      16.95267136        3       0.00064806       0.00003022       0.00113569
Al       8.73018055       3.18233446      16.98014404        3       0.00060886      -0.00123709      -0.00206490
Al      11.58102780       3.18452684      16.99198513        3       0.00285214       0.00208785      -0.00543936
Al       4.41409211       5.66542189      16.93719837        3       0.00048961      -0.00014895      -0.00021196
Al       7.31599378       5.68391321      16.92809184        3      -0.01257670      -0.00629218       0.00189312
Al      10.15292666       5.67395429      16.99602978        3       0.00748218       0.00044550      -0.00541447
Al      12.99494326       5.65611463      16.97513955        3       0.00095214       0.00147995       0.00248489
Al       5.87363031       8.16812734      16.94396282        3      -0.00181189      -0.00126590      -0.00008465
Al       8.75003306       8.17629835      17.00775920        3       0.00058337       0.00003883       0.00029823
Al      11.59282466       8.16073263      17.10674596        3      -0.00094234      -0.00007524      -0.00521225
Al      14.43891782       8.16084548      16.99593675        3       0.00024373      -0.00009890      -0.00012573
Al       0.08071030       1.51855029      19.34544162        2      -0.00149241       0.00349416      -0.00367689
Al       2.92591393       1.46514402      19.31629980        2       0.00410201       0.00354328       0.00882242
Al       5.79248339       1.46669821      19.32606636        2       0.00143961       0.00411109      -0.00329025
Al       8.66290610       1.49034827      19.34503641        2       0.00560916      -0.00056472       0.00451798
Al       1.49921486       3.92908630      19.32025350        2      -0.00442562       0.00127421      -0.00371237
Al       4.35933529       3.96003857      19.23391118        2      -0.00021645      -0.00134423       0.00534337
Al       7.24030643       3.98091563      19.20466740        2       0.00036563      -0.00092242       0.00500921
Al      10.13483672       3.95102417      19.27790710        2      -0.00103532      -0.00024595       0.00141555
Al       2.91201878       6.44548839      19.24527238        2      -0.00052285      -0.00063436      -0.00373657
Al       5.79766565       6.44785056      19.17756912        2       0.00032818       0.00403298       0.00740022
Al       8.67665257       6.48786105      19.24125817        2       0.00271404      -0.00450107      -0.00205144
Al      11.51478873       6.40981819      19.35410325        2       0.00276930       0.00151870       0.00499561
Al       4.38089111       8.94980703      19.25510971        2       0.00206398      -0.00067752       0.00153482
Al       7.23899193       8.97070149      19.24880889        2       0.00000225       0.00296750       0.00537659
Al      10.12289887       8.92936235      19.54459082        2      -0.00034174      -0.00156260      -0.00095866
Al      12.99651381       8.95550531      19.46728434        2      -0.00228541       0.00403052      -0.00964797
Al      -0.08120630      -0.11011232      21.59351004        1      -0.00570043      -0.00433557       0.01181144
Al       2.62697341      -0.21007052      22.05922444        1      -0.00045905      -0.00208152      -0.00198981
Al       5.64106798      -0.19162827      22.15964990        1      -0.00070996       0.00409331      -0.00447513
Al       8.56543651      -0.32354795      22.11255108        1      -0.00037055       0.00079293      -0.00445065
Al       1.40623432       2.31973723      22.14382052        1       0.00511104       0.00649516      -0.01018655
Al       4.27228299       2.29531398      21.61699838        1      -0.00510899       0.00337704       0.00029745
Al       7.08618286       2.29181412      21.61951171        1       0.00579258       0.00123683       0.00197319
Al       9.84979074       2.29906692      21.81584980        1       0.00577335      -0.00105833       0.00371008
Al       2.87277858       4.76960902      21.53956626        1      -0.00382029       0.00314324       0.00646727
Al       5.71821450       4.77741388      21.51130104        1      -0.00126636      -0.00021319      -0.00770208
Al       8.51391048       4.77301526      21.53818621        1       0.00471584      -0.00029920       0.00194095
Al      11.42138616       4.85611757      22.12766534        1       0.00151827       0.00430762      -0.00452335
Al       4.27414696       7.23619265      21.49993777        1       0.00189439       0.00771056      -0.00277113
Al       7.04854835       7.26771583      21.50529016        1       0.00007880      -0.00210596       0.00341369
Al       9.75313826       7.21342346      21.93988334        1       0.00306440       0.00086567      -0.00242359
Al      12.80993637       7.25244442      21.66361663        1      -0.00043214      -0.00030639       0.00527545
C        4.54365281       5.67820256      24.73202113        0       0.01248707      -0.00017738       0.00794678
N        4.98421333       4.41815163      24.78490645        0      -0.00112669       0.00956819       0.00839134
C        6.34311921       4.55908298      24.90374805        0      -0.00116705       0.02202845       0.00186514
N        6.77284465       5.82779627      24.89015487        0       0.00164643      -0.00463395       0.00322060
N        5.60191559       6.53237994      24.81805268        0       0.00090757      -0.01017192       0.00646434
H        3.52276603       6.01031412      24.56262865        0      -0.01520544      -0.00788351      -0.00235573
H        7.03945530       3.72049359      24.92714005        0      -0.00849151       0.00788179       0.00429527
H        5.60776302       7.48654206      24.46059395        0      -0.00589514       0.00645134      -0.00374593
