104
Lattice="11.45512985522207 0.0 0.0 5.727564927611035 9.92043345827187 0.0 0.0 0.0 31.691342951089922" Properties=species:S:1:pos:R:3:tags:I:1:forces:R:3 energy=-419.8472900390625 free_energy=-419.8472900390625 stress="0.006668674293905497 5.331821739673615e-07 -7.916241884231567e-08 5.331821739673615e-07 0.006725838873535395 1.6014091670513153e-06 -7.916241884231567e-08 1.6014091670513153e-06 0.006888571195304394" pbc="T T F"
Al       1.61494637       0.84901764       9.95308700        6      -0.00005567      -0.00038741      -0.00093312
Al       4.48000565       0.84939959       9.96791566        6      -0.00004666      -0.00034984      -0.00083524
Al       7.33996076       0.84842116       9.96798063        6      -0.00008414      -0.00036635      -0.00079727
Al      10.20319451       0.84767691       9.95519824        6      -0.00006063      -0.00039408      -0.00092533
Al       3.04554426       3.33007067       9.94259303        6      -0.00006369      -0.00034675      -0.00099166
Al       5.90889906       3.33145629       9.95229851        6      -0.00006264      -0.00037019      -0.00080113
Al       8.77082272       3.33094547       9.94165721        6      -0.00006056      -0.00024919      -0.00073761
Al      11.63501926       3.33083692       9.93466033        6      -0.00013967      -0.00029048      -0.00086036
Al       4.47407790       5.81046517       9.95859439        6       0.00003309      -0.00014783      -0.00066477
Al       7.33976079       5.81197077       9.95875787        6       0.00001923      -0.00015569      -0.00061996
Al      10.20334730       5.81270886       9.95880121        6      -0.00009693      -0.00026197      -0.00067282
Al      13.06583495       5.81102721       9.95743453        6      -0.00007859      -0.00023365      -0.00082572
Al       5.90770175       8.28897370       9.96728683        6      -0.00000507      -0.00023470      -0.00081201
Al       8.77450370       8.29069839       9.97755563        6      -0.00003853      -0.00020857      -0.00087562
Al      11.63557616       8.28864017       9.98464480        6      -0.00001502      -0.00020168      -0.00079881
Al      14.49604063       8.28776738       9.97900084        6      -0.00000548      -0.00014105      -0.00082075
Al       0.19154821       1.62896556      12.33844824        5      -0.00084961       0.00296343      -0.00033058
Al       3.05585797       1.62690068      12.34606852        5      -0.00050580       0.00274100       0.00323873
Al       5.92054051       1.63060838      12.36343597        5      -0.00100910      -0.00082702      -0.00153055
Al       8.78093484       1.62941857      12.35136180        5       0.00103713       0.00136416      -0.00168675
Al       1.62031061       4.11511776      12.32894048        5      -0.00014563      -0.00323573       0.00430410
Al       4.48682867       4.11162728      12.34015603        5      -0.00134445      -0.00150361       0.00043779
Al       7.35505088       4.11309181      12.34556365        5      -0.00034821      -0.00139144      -0.00368101
Al      10.21520205       4.11411610      12.33976183        5       0.00008955      -0.00327247      -0.00270213
Al       3.05252002       6.59739991      12.35756889        5      -0.00029492      -0.00189053       0.00246185
Al       5.92317394       6.59883746      12.35317938        5      -0.00110033      -0.00251957       0.00060604
Al       8.78968138       6.59814609      12.36117095        5       0.00019631      -0.00157233       0.00300756
Al      11.64813924       6.59711693      12.36683197        5      -0.00075514      -0.00134281       0.00079121
Al       4.48602552       9.07553434      12.36141379        5      -0.00045426      -0.00030256      -0.00150009
Al       7.35328895       9.07442882      12.35819769        5       0.00030159       0.00023589       0.00211125
Al      10.21815567       9.07362529      12.37804873        5       0.00082378       0.00025750       0.00326385
Al      13.07844533       9.07452661      12.38016728        5      -0.00170484      -0.00050077       0.00182258
Al       0.18032000      -0.04693518      14.65362437        4      -0.00019151      -0.00042307       0.00035065
Al       3.04317544      -0.05346930      14.67059056        4       0.00021860      -0.00000842       0.00071868
Al       5.90367073      -0.05569141      14.70175956        4       0.00011105       0.00003283       0.00043768
Al       8.76856427      -0.05340613      14.67338921        4      -0.00002821      -0.00000935       0.00064651
Al       1.60379859       2.41978926      14.63731903        4       0.00028087       0.00012055       0.00062825
Al       4.46511271       2.41578524      14.64740051        4       0.00042560       0.00014418       0.00092859
Al       7.34299851       2.42082466      14.64958911        4      -0.00045180      -0.00029954       0.00095878
Al      10.20341845       2.41890613      14.63836929        4      -0.00004684       0.00034120       0.00094763
Al       3.02507427       4.89759333      14.62912118        4       0.00061405      -0.00013613       0.00066781
Al       5.90364520       4.90140199      14.62266278        4      -0.00026652      -0.00081424       0.00199430
Al       8.78055726       4.90799313      14.63872819        4      -0.00091706      -0.00099755       0.00124618
Al      11.63010537       4.90270625      14.63833332        4      -0.00025743      -0.00051128       0.00064303
Al       4.46720332       7.39457444      14.64792876        4      -0.00024256      -0.00134311       0.00014232
Al       7.34871221       7.39745478      14.65735081        4      -0.00018249      -0.00080459       0.00045478
Al      10.21509999       7.39580531      14.69047199        4      -0.00092280      -0.00049719       0.00036762
Al      13.05059535       7.38478268      14.68771327        4       0.00052622       0.00011485      -0.00019087
Al       1.55712199       0.71288907      16.98537723        3       0.00133547       0.00088132       0.00017742
Al       4.42303469       0.68496066      17.02599844        3       0.00007237       0.00019866       0.00064681
Al       7.29056951       0.69859893      17.02120966        3       0.00034560       0.00032812      -0.00015793
Al      10.16224787       0.71608330      16.99056736        3      -0.00173342       0.00060675      -0.00015204
Al       2.97364577       3.17330693      16.96931090        3       0.00080444      -0.00184324      -0.00261940
Al       5.85400785       3.16689873      16.95261321        3      -0.00030162      -0.00034578      -0.00006639
Al       8.73186299       3.17778843      16.96718501        3       0.00035734      -0.00037679       0.00041003
Al      11.58709694       3.18960943      16.96497365        3      -0.00138455      -0.00162081       0.00150886
Al       4.40204034       5.65994628      16.92256643        3       0.00152586       0.00006656       0.00046306
Al       7.29128916       5.66394878      16.93326710        3       0.00115283       0.00072533      -0.00062194
Al      10.16427134       5.67131653      16.97869188        3      -0.00011694       0.00000112       0.00075566
Al      12.99538259       5.64896285      16.96555667        3       0.00132556       0.00280770       0.00344451
Al       5.86025006       8.16559874      16.95056466        3       0.00022735      -0.00068240       0.00056403
Al       8.74019472       8.16605555      17.01488881        3       0.00024472      -0.00020019       0.00038752
Al      11.58542516       8.15525421      17.07558709        3      -0.00001625      -0.00017202       0.00042063
Al      14.43313981       8.15123911      16.99157688        3       0.00007449       0.00061301      -0.00067349
Al       0.07585015       1.52704173      19.32252036        2       0.00098529      -0.00114046       0.00499764
Al       2.93418873       1.48315587      19.31167728        2      -0.00187395       0.00087681      -0.00035763
Al       5.79896289       1.48309918      19.31253510        2      -0.00171908      -0.00155384       0.00317255
Al       8.67858211       1.48395524      19.34331090        2       0.00090755       0.00180687      -0.00444049
Al       1.48179044       3.94657727      19.30911690        2       0.00253805       0.00102580       0.00203242
Al       4.35028899       3.97227327      19.21889261        2       0.00376713       0.00076397       0.00355841
Al       7.24727591       3.97801230      19.20781471        2      -0.00179499      -0.00140311      -0.00403389
Al      10.12234312       3.96536727      19.28029386        2       0.00136476      -0.00037876      -0.00619674
Al       2.91972815       6.45397068      19.23712881        2      -0.00170097      -0.00036043      -0.00369785
Al       5.79851356       6.46164546      19.18414467        2       0.00293776      -0.00167447      -0.00101218
Al       8.69032922       6.45304998      19.23524933        2      -0.00042914       0.00312077      -0.00519550
Al      11.52583650       6.43084713      19.35455492        2      -0.00156145      -0.00119252      -0.00548993
Al       4.38882507       8.95393969      19.24932002        2      -0.00025128       0.00192012      -0.00311667
Al       7.24094119       8.98532933      19.26143915        2       0.00167179      -0.00295307      -0.00030900
Al      10.11735293       8.92524570      19.52221337        2       0.00039229       0.00197077      -0.00214159
Al      12.98232659       8.96802909      19.39822059        2       0.00081406      -0.00292166       0.00449307
Al      -0.09826343      -0.10318120      21.64224271        1       0.00029130       0.00008090       0.00286231
Al       2.63350212      -0.23522297      22.01325504        1      -0.00182539       0.00238281      -0.00058499
Al       5.63768187      -0.14676407      22.10628964        1       0.00073804       0.00135589       0.00023796
Al       8.56615914      -0.31322046      22.05510551        1       0.00070137      -0.00081752       0.00126906
Al       1.44724683       2.36886113      22.01752514        1      -0.00167499      -0.00071441       0.00139811
Al       4.25935674       2.34193585      21.60870736        1       0.00726196      -0.00049585      -0.00351224
Al       7.12678627       2.30798614      21.61867686        1      -0.00474515      -0.00015469      -0.00601630
Al       9.90203806       2.29980404      21.82890357        1      -0.00029629      -0.00108251       0.00250626
Al       2.86016087       4.81555539      21.55780333        1       0.00459602       0.00081968      -0.00615217
Al       5.72563286       4.77777544      21.50474516        1       0.00067081       0.00068188       0.00204271
Al       8.55012166       4.77549839      21.54564292        1      -0.00259093       0.00136893       0.00122802
Al      11.43322395       4.89878591      22.06971866        1       0.00104968      -0.00078805       0.00097666
Al       4.29865969       7.26110576      21.49052534        1      -0.00061435      -0.00000999       0.00446824
Al       7.06180297       7.24571756      21.52829363        1       0.00075018       0.00034873       0.00050444
Al       9.78860105       7.23566953      21.90432705        1       0.00231267       0.00210753      -0.00202329
Al      12.82658383       7.29272050      21.64788605        1      -0.00157326       0.00101361       0.00211614
C        4.53056033       5.66840571      24.82182071        0       0.00454433       0.00619309      -0.00232491
N        5.00234138       4.42122173      24.88341185        0      -0.00863175      -0.00386860       0.00064988
C        6.35902912       4.59522384      24.95837280        0       0.01224226       0.00071832       0.00608983
N        6.75885518       5.87383164      24.92304506        0       0.00802936       0.00087376       0.00098251
N        5.56969457       6.54961844      24.87801618        0      -0.01142999       0.01063908      -0.01123860
H        3.49890737       5.96886278      24.65891867        0      -0.00708965       0.00229736       0.00434981
H        7.07328128       3.77170565      24.97187948        0      -0.00317327       0.01388338       0.00282328
H        5.54438092       7.50024189      24.50965436        0      -0.00134907      -0.01550508       0.00202282
