104
Lattice="11.45512985522207 0.0 0.0 5.727564927611035 9.92043345827187 0.0 0.0 0.0 31.691342951089922" Properties=species:S:1:pos:R:3:tags:I:1:forces:R:3 energy=-420.05377197265625 free_energy=-420.05377197265625 stress="0.008391046896576881 1.969747245311737e-07 4.7963112592697144e-08 1.969747245311737e-07 0.008439559489488602 2.021435648202896e-06 4.7963112592697144e-08 2.021435648202896e-06 0.008646629750728607" pbc="T T F"
Al       1.55626412       0.85506401       9.89963296        6       0.00028959      -0.00017060       0.00099796
Al       4.42148937       0.85578457       9.91850066        6       0.00030360      -0.00030215       0.00090316
Al       7.28113152       0.85509607       9.93083193        6       0.00039624      -0.00030565       0.00070310
Al      10.14408837       0.85510226       9.90918419        6       0.00038778      -0.00022437       0.00103465
Al       2.98632646       3.33836563       9.89986537        6       0.00032037      -0.00018137       0.00108244
Al       5.84844734       3.34021342       9.91239410        6       0.00043414      -0.00029570       0.00098018
Al       8.71047933       3.33940329       9.89916503        6       0.00042911      -0.00020514       0.00120676
Al      11.57495695       3.33865523       9.89028395        6       0.00041897      -0.00020805       0.00124342
Al       4.41437159       5.81892608       9.93421688        6       0.00042642      -0.00024599       0.00077802
Al       7.27821324       5.82000513       9.92481159        6       0.00045452      -0.00026305       0.00113519
Al      10.14140880       5.81877111       9.92313880        6       0.00041647      -0.00026037       0.00109097
Al      13.00645059       5.81812169       9.92493024        6       0.00034869      -0.00026991       0.00098512
Al       5.84786055       8.29455275       9.93303532        6       0.00040645      -0.00007200       0.00099021
Al       8.71318093       8.29571752       9.93257385        6       0.00043440      -0.00014366       0.00103657
Al      11.57619639       8.29438142       9.95046148        6       0.00038558      -0.00020764       0.00085166
Al      14.43829010       8.29431449       9.95659096        6       0.00039508      -0.00012365       0.00062434
Al       0.15719982       1.66416270      12.31529452        5       0.00038577      -0.00085512       0.00322434
Al       3.01772726       1.66348425      12.31790303        5       0.00100064      -0.00028944       0.00584058
Al       5.88542469       1.66392315      12.33813509        5       0.00003399      -0.00181433      -0.00120774
Al       8.74995111       1.66530192      12.33049741        5       0.00011936      -0.00197796       0.00000896
Al       1.58418868       4.14221727      12.32752311        5       0.00119435      -0.00123892      -0.00157523
Al       4.45192490       4.14277824      12.33131389        5       0.00027382      -0.00127089      -0.00097677
Al       7.31989429       4.14566755      12.33482439        5       0.00028646      -0.00163173      -0.00430725
Al      10.18147369       4.14231940      12.32882416        5      -0.00074094      -0.00056922      -0.00447718
Al       3.02207877       6.62315432      12.35298773        5      -0.00144380       0.00035577       0.00163134
Al       5.88862951       6.62738203      12.35597011        5      -0.00019151      -0.00120530      -0.00854912
Al       8.75068236       6.62930233      12.35545841        5       0.00134553      -0.00177810      -0.00143225
Al      11.60984400       6.62083186      12.35826157        5       0.00129630       0.00213033      -0.00302324
Al       4.45597594       9.10780716      12.35706277        5      -0.00102613       0.00003536      -0.00259991
Al       7.31597983       9.10721878      12.34212849        5       0.00115388       0.00000712       0.00293642
Al      10.18008622       9.10544959      12.36571148        5       0.00117024      -0.00056442      -0.00436564
Al      13.04663613       9.10761643      12.37145391        5      -0.00049358      -0.00145748      -0.00487344
Al       0.16673810      -0.00235095      14.66387373        4      -0.00379210      -0.00354503      -0.00556759
Al       3.02307806      -0.00499622      14.65872759        4       0.00012242      -0.00095645       0.00156394
Al       5.88925738      -0.00692060      14.67517499        4      -0.00226248      -0.00457217       0.00403305
Al       8.75289644      -0.00522264      14.68064738        4       0.00000417      -0.00071150       0.00003928
Al       1.58922675       2.46040070      14.63425685        4      -0.00016005      -0.00046544       0.00028657
Al       4.45254565       2.45590402      14.63524009        4      -0.00243475      -0.00088598       0.00041990
Al       7.31889223       2.46450148      14.64179414        4      -0.00072153      -0.00250630      -0.00055145
Al      10.18646387       2.45974782      14.63079093        4      -0.00020947       0.00001051       0.00129873
Al       3.01063960       4.93449923      14.63846804        4       0.00005500       0.00058905       0.00129813
Al       5.88147152       4.94363058      14.64038340        4       0.00012398      -0.00027054       0.00038562
Al       8.75844379       4.94812477      14.65064096        4      -0.00078872      -0.00124972      -0.00280509
Al      11.60764642       4.94795422      14.65031138        4       0.00061927      -0.00211189      -0.00134805
Al       4.45242689       7.43304599      14.66499401        4      -0.00250578      -0.00161690      -0.00245449
Al       7.32681812       7.44495841      14.66815402        4       0.00001774      -0.00475704      -0.00466388
Al      10.19921540       7.43706409      14.68687892        4      -0.00121387       0.00017134       0.00142867
Al      13.03770575       7.43516555      14.66821217        4      -0.00002105      -0.00289490       0.00463261
Al       1.55101989       0.74688499      17.00967698        3       0.00113606       0.00001722      -0.00163687
Al       4.40028313       0.72153597      17.00891223        3       0.00057131       0.00050636       0.00156309
Al       7.27303774       0.72235281      17.02022430        3       0.00029805       0.00069906       0.00113947
Al      10.16712476       0.74852878      17.00672798        3      -0.02327731       0.00021249      -0.00719461
Al       2.96400496       3.20924605      16.95736844        3       0.00032499      -0.00048322       0.00150715
Al       5.82461374       3.19538230      16.94284459        3       0.00924409       0.00555332       0.00398692
Al       8.71106468       3.20138304      16.94854131        3       0.00686285       0.00333176       0.00893343
Al      11.57802672       3.20834289      16.95772503        3      -0.00267105       0.00010665       0.00377361
Al       4.39197108       5.70053016      16.94552102        3       0.00167153       0.00032182      -0.00056157
Al       7.29318997       5.70889927      16.93678906        3      -0.00729096      -0.00187589       0.00155151
Al      10.16298144       5.71178104      16.98592194        3      -0.00246844      -0.00139841       0.00016104
Al      12.98224204       5.69055262      16.98397763        3       0.00444137       0.00613216       0.00025681
Al       5.84995086       8.20462480      16.97040664        3       0.00178645      -0.00537717       0.00480079
Al       8.72406917       8.20153888      17.02045293        3       0.00052995       0.00125967      -0.00808916
Al      11.57378028       8.19195653      17.08962201        3       0.00106254      -0.00063112      -0.00038799
Al      14.41784540       8.19363707      16.99279813        3      -0.00020462      -0.00154393       0.00364121
Al       0.07207559       1.52484196      19.38296857        2       0.00133096      -0.00032115       0.00151637
Al       2.90198786       1.51645637      19.34489344        2      -0.00028124      -0.00049790       0.00147743
Al       5.76019034       1.51383543      19.30080866        2       0.00251599      -0.00024733      -0.00215107
Al       8.68530394       1.50930589      19.30683339        2      -0.00730195       0.00158019       0.00458862
Al       1.47462911       3.97999139      19.28618922        2       0.00396713      -0.00168807       0.00253572
Al       4.33306802       3.99480853      19.22700395        2      -0.00054482      -0.00027636       0.00959496
Al       7.22483762       4.01059358      19.20372636        2       0.00201131      -0.00401703      -0.00392946
Al      10.12776868       4.00384346      19.25426087        2      -0.00364758      -0.00066790       0.00288057
Al       2.90150545       6.47980556      19.26970194        2       0.00072864       0.00127857      -0.00081639
Al       5.78083993       6.48145118      19.21580117        2       0.00220975       0.00238091      -0.00497949
Al       8.68295647       6.50020082      19.22803336        2      -0.00292628       0.00053658       0.00773866
Al      11.52653593       6.46141519      19.39818939        2      -0.00241318       0.00023898      -0.00217447
Al       4.37749668       8.96699444      19.27185610        2      -0.00040802       0.00201548       0.01656879
Al       7.23596757       9.00115085      19.31566062        2      -0.00115477      -0.00169731      -0.00391848
Al      10.08483672       8.96514361      19.47132563        2       0.00122192      -0.00027125       0.00131281
Al      12.96451371       8.98157633      19.47727724        2       0.00081316       0.00004554       0.00085292
Al      -0.07582197      -0.25070437      21.78825042        1      -0.00300677       0.00326849      -0.00268737
Al       2.66410551      -0.19068243      22.11427963        1       0.00298374       0.00017056      -0.00478020
Al       5.63936772      -0.12685417      21.94515681        1      -0.00280651      -0.00042751       0.00603043
Al       8.55724088      -0.15781802      22.03428156        1      -0.00024479      -0.00194759       0.00288223
Al       1.38516847       2.37388404      22.02584177        1       0.00224757       0.00089932       0.00323198
Al       4.25614244       2.36443965      21.63868926        1       0.00184872      -0.00130622      -0.00603048
Al       7.10801135       2.35616816      21.56916810        1       0.00323998      -0.00072961       0.00572755
Al       9.94527618       2.33392889      21.72016280        1      -0.00211975      -0.00040362      -0.00185705
Al       2.80836915       4.80912885      21.58204242        1       0.00382277       0.00040224      -0.00367760
Al       5.67189843       4.81496315      21.51880975        1       0.00314227      -0.00360264      -0.00346947
Al       8.46292569       4.80728643      21.55804023        1       0.00252911      -0.00198630      -0.00161600
Al      11.26762207       4.83346416      21.98964808        1       0.00739746       0.00559942      -0.00192864
Al       4.21669787       7.28703298      21.57529312        1       0.00275177      -0.00217535       0.00007293
Al       7.01424007       7.24975186      21.57195737        1       0.00362459       0.00261977      -0.00537873
Al       9.71768850       7.25338533      21.90475351        1      -0.00015152      -0.00401174      -0.00031914
Al      12.79382698       7.24901136      21.80449056        1       0.00104171       0.00147644      -0.00170812
C        4.87189933       5.28408320      24.84914215        0      -0.00639238       0.00836203      -0.00549947
N        5.43525644       4.07577579      24.92620951        0       0.00610183      -0.00626661       0.00210278
C        6.77389720       4.35244128      25.01653514        0      -0.02020800       0.00776653       0.00532524
N        7.07769176       5.65674414      24.97272689        0       0.01283671      -0.00826883       0.00517016
N        5.84276391       6.24051543      24.91069966        0      -0.01495686       0.01393935      -0.00481605
H        3.82191559       5.50391334      24.67355881        0       0.00243017       0.00400734       0.00083375
H        7.54683589       3.58587421      25.04615578        0       0.01659956      -0.00893655      -0.00377434
H        5.75097524       7.18291356      24.53575958        0      -0.00829223       0.02771645      -0.01826875
