104
Lattice="11.45512985522207 0.0 0.0 5.727564927611035 9.92043345827187 0.0 0.0 0.0 31.691342951089922" Properties=species:S:1:pos:R:3:tags:I:1:forces:R:3 energy=-419.818359375 free_energy=-419.818359375 stress="0.006630551069974899 7.334165275096893e-07 -9.173527359962463e-08 7.334165275096893e-07 0.006683412007987499 1.5576370060443878e-06 -9.173527359962463e-08 1.5576370060443878e-06 0.006839137990027666" pbc="T T F"
Al       1.62534906       0.84645295       9.95537263        6      -0.00016393      -0.00052119      -0.00123472
Al       4.49038451       0.84607840       9.97023129        6      -0.00014194      -0.00038327      -0.00104609
Al       7.35048318       0.84524406       9.96826434        6      -0.00019657      -0.00038987      -0.00105477
Al      10.21356351       0.84498998       9.95626668        6      -0.00021502      -0.00049142      -0.00137428
Al       3.05574634       3.32674709       9.94445056        6      -0.00012327      -0.00044077      -0.00137061
Al       5.91983822       3.32725847       9.95330980        6      -0.00016326      -0.00032559      -0.00116060
Al       8.78183352       3.32711268       9.94361595        6      -0.00027558      -0.00033349      -0.00139709
Al      11.64580873       3.32761755       9.93683536        6      -0.00028806      -0.00040802      -0.00146172
Al       4.48445318       5.80783998       9.95816983        6      -0.00006201      -0.00029507      -0.00098063
Al       7.35078778       5.80911408       9.95950595        6      -0.00019315      -0.00030747      -0.00108885
Al      10.21473906       5.81014144       9.96101742        6      -0.00031612      -0.00034254      -0.00127704
Al      13.07615832       5.80893042       9.96021674        6      -0.00016218      -0.00039896      -0.00135572
Al       5.91824735       8.28718321       9.96601298        6      -0.00011861      -0.00048933      -0.00127275
Al       8.78584253       8.28862152       9.97868621        6      -0.00021882      -0.00047934      -0.00127027
Al      11.64662769       8.28682798       9.98648574        6      -0.00015908      -0.00031228      -0.00116999
Al      14.50576476       8.28594618       9.97689177        6      -0.00011768      -0.00030024      -0.00111803
Al       0.19362439       1.62388974      12.34117748        5       0.00072958      -0.00236566      -0.00122351
Al       3.06175705       1.62103187      12.35364697        5      -0.00206326      -0.00073997      -0.00113772
Al       5.92293065       1.62036020      12.36646966        5      -0.00011847      -0.00087711       0.00049315
Al       8.78405058       1.62128027      12.35075327        5       0.00015942      -0.00109697       0.00117305
Al       1.62461424       4.10216093      12.33280647        5       0.00042661      -0.00160527       0.00056991
Al       4.48979544       4.09881468      12.34016435        5      -0.00015502       0.00011303       0.00143228
Al       7.35785257       4.10057643      12.34067609        5      -0.00034250       0.00028403       0.00324311
Al      10.21845509       4.09941221      12.33648002        5      -0.00107890       0.00045672       0.00019467
Al       3.05603996       6.58570406      12.35962111        5      -0.00117653      -0.00137501      -0.00039535
Al       5.92522713       6.58664459      12.35070091        5       0.00023861      -0.00188237       0.00290381
Al       8.79444149       6.58645358      12.36227457        5      -0.00097079      -0.00111180       0.00204334
Al      11.65119334       6.58687494      12.36400197        5       0.00034280      -0.00107350       0.00382129
Al       4.48789179       9.06365900      12.35760002        5       0.00035883       0.00111412       0.00014494
Al       7.35823916       9.06347112      12.36139820        5      -0.00040876       0.00129791      -0.00199150
Al      10.22426152       9.06454610      12.38318730        5      -0.00047915       0.00053416      -0.00017587
Al      13.07979964       9.06503257      12.38361761        5      -0.00079226      -0.00092063       0.00039056
Al       0.17841279      -0.06156553      14.64983095        4      -0.00004837      -0.00019840       0.00023060
Al       3.04391851      -0.07053244      14.67093415        4       0.00039900       0.00038610       0.00087554
Al       5.90260568      -0.06920423      14.71294384        4       0.00033110       0.00001349      -0.00179581
Al       8.76758105      -0.06787515      14.67365797        4      -0.00002705       0.00003097       0.00030196
Al       1.60404323       2.40744994      14.63754156        4       0.00024640       0.00006026       0.00062475
Al       4.46523891       2.40351785      14.65699641        4       0.00025322      -0.00004222       0.00021890
Al       7.34284936       2.40799896      14.65624081        4      -0.00012614      -0.00015663       0.00030347
Al      10.20047396       2.40537641      14.64219390        4       0.00007397       0.00021435       0.00032234
Al       3.02824235       4.88647184      14.63172102        4       0.00009044      -0.00059069      -0.00005901
Al       5.90522797       4.88734525      14.62694934        4      -0.00014068      -0.00034776       0.00041049
Al       8.77973359       4.89559795      14.64255144        4      -0.00096073      -0.00177356      -0.00085236
Al      11.62880696       4.88410798      14.62591519        4       0.00034068       0.00102472       0.00601289
Al       4.46838431       7.38052792      14.64472501        4      -0.00002143      -0.00071385       0.00015387
Al       7.34987044       7.38393547      14.66043064        4      -0.00131039      -0.00157195      -0.00171965
Al      10.21050435       7.38278093      14.68992094        4      -0.00003518      -0.00043511       0.00016510
Al      13.05172342       7.37080095      14.69237454        4      -0.00014571      -0.00043760      -0.00570642
Al       1.56194273       0.70911276      16.98226481        3       0.00055600       0.00018789      -0.00062697
Al       4.43065512       0.68243452      17.03296680        3      -0.00061473      -0.00045374      -0.00000501
Al       7.29574585       0.70003959      17.02651465        3       0.00074269      -0.00065903      -0.00038323
Al      10.16735361       0.71644719      16.98767409        3      -0.00190775      -0.00058119      -0.00031003
Al       2.97434198       3.16388312      16.97166828        3       0.00049093      -0.00036971      -0.00063621
Al       5.85968106       3.15682810      16.95695412        3      -0.00159715       0.00004800      -0.00082306
Al       8.74155751       3.17193189      16.97728358        3      -0.00202629      -0.00268808      -0.00214161
Al      11.58104024       3.18290109      16.96993931        3       0.00023738       0.00008713       0.00051629
Al       4.40185641       5.64995212      16.91841000        3       0.00953774      -0.00014269       0.00430220
Al       7.29593869       5.65824639      16.93241470        3      -0.00075208      -0.00074720      -0.00078974
Al      10.14827444       5.66016092      16.97860839        3       0.01708546       0.00025635       0.00154160
Al      13.00491293       5.64713646      16.97118720        3      -0.01453191      -0.00373661      -0.00470330
Al       5.86065286       8.15541441      16.95090921        3      -0.00022318      -0.00015443      -0.00059309
Al       8.73782075       8.15029254      17.01131503        3       0.00621381       0.00543810      -0.00020103
Al      11.58805127       8.14948250      17.07023663        3      -0.00049373      -0.00035543       0.00002288
Al      14.43390896       8.14590138      16.98496473        3       0.00157982       0.00284847      -0.00076453
Al       0.07928408       1.52924067      19.32687040        2       0.00204067       0.00079595       0.00281713
Al       2.93838881       1.47895046      19.30346775        2       0.00063913       0.00117542       0.01273885
Al       5.80637743       1.47480060      19.32891261        2      -0.00219637      -0.00147070      -0.00411166
Al       8.68090716       1.47881943      19.36215366        2       0.00141954       0.00161183      -0.00130338
Al       1.48928966       3.94348630      19.32538978        2      -0.00135179       0.00039072      -0.00519211
Al       4.36285861       3.96951847      19.22855313        2       0.00020187      -0.00035782      -0.00342129
Al       7.24956558       3.96819795      19.20176182        2       0.00026425       0.00184153       0.00740242
Al      10.11752395       3.95390693      19.29894158        2       0.00385962       0.00103645      -0.00769625
Al       2.92019177       6.44974294      19.21599676        2       0.00293552       0.00031728       0.00540007
Al       5.80894130       6.45640272      19.17651244        2       0.00029629      -0.00046805       0.00597488
Al       8.69163272       6.44767077      19.23079406        2       0.00047099       0.00318002       0.00009014
Al      11.52388756       6.43051133      19.33487059        2      -0.00094944      -0.00229814      -0.00087102
Al       4.39365875       8.96355446      19.24429873        2      -0.00096591      -0.00269982       0.00275365
Al       7.24669298       8.98297329      19.25102042        2       0.00208301      -0.00390095       0.01024252
Al      10.12738886       8.92726395      19.52647851        2      -0.00082009       0.00033416      -0.00215254
Al      12.98952322       8.96042923      19.39677827        2       0.00164827      -0.00095190       0.00157048
Al      -0.11415114      -0.05430943      21.62698571        1       0.00194006      -0.01315134       0.00630859
Al       2.61884230      -0.22939328      21.98737955        1      -0.00186031       0.00078477       0.00011690
Al       5.63472111      -0.14621857      22.16647842        1       0.00079572       0.00340025      -0.00549921
Al       8.55393528      -0.34863225      22.06431110        1       0.00460343       0.00551498      -0.00227170
Al       1.46030656       2.38278996      22.04584228        1      -0.00152802      -0.00229102      -0.00092144
Al       4.26771310       2.34084201      21.60717409        1       0.00427956      -0.00070748      -0.00235156
Al       7.12395282       2.29467538      21.62609852        1      -0.00119107       0.00207082      -0.00169944
Al       9.90019308       2.28909535      21.87406014        1      -0.00117128       0.00045821       0.00178688
Al       2.88274655       4.82525936      21.54520692        1       0.00360603       0.00081249      -0.00625077
Al       5.74449676       4.77384676      21.50491859        1       0.00258437       0.00203140       0.00381246
Al       8.58070757       4.76486789      21.54899772        1      -0.00500444       0.00408843       0.00092181
Al      11.49555009       4.91749489      22.06957032        1      -0.00413427      -0.00290862      -0.00097983
Al       4.31238105       7.25820777      21.46022660        1       0.00067647       0.00314294       0.00512257
Al       7.08309952       7.25292358      21.52037755        1      -0.00073345      -0.00296999       0.00027457
Al       9.82491770       7.23345700      21.88893517        1       0.00169038       0.00360242      -0.00103088
Al      12.82417006       7.30854090      21.64036453        1      -0.00197401      -0.00178179      -0.00292550
C        4.47056233       5.74829150      24.78251379        0      -0.01147654       0.00713590       0.00659579
N        4.92453569       4.49632527      24.87751252        0       0.01512110       0.00438595       0.00150193
C        6.28265288       4.65728845      24.97575332        0      -0.00730903       0.00217651      -0.00160605
N        6.69936307       5.92986728      24.92268316        0      -0.01883929      -0.00150436      -0.00704547
N        5.51866846       6.61621549      24.83494192        0       0.00382504       0.00406439       0.00512645
H        3.44314990       6.06223022      24.61547260        0      -0.00257763      -0.00726427      -0.00389223
H        6.98760616       3.82798775      25.01646567        0       0.00687407      -0.00744072       0.00526485
H        5.51066446       7.56375120      24.46206865        0      -0.00274219       0.01884113      -0.01034444
