16
Lattice="5.664822893438226 -4.640872005035482e-09 1.7246988531260337e-08 2.8324114427 4.905880631537895 1.3092858946684748e-09 8.100982170454669e-08 -4.164273509435463e-08 26.945636060583993" Properties=species:S:1:pos:R:3:initial_magmoms:R:1:forces:R:3:magmoms:R:1 energy=-57.34528350830078 free_energy=-57.34528350830078 stress="0.0007184618734754622 -8.642915716450261e-09 -1.0025344110431433e-08 -8.554992270148887e-09 0.0007183899288065732 2.4639392748326827e-09 -1.0683685047752078e-08 3.1010889411930975e-09 -0.001040055649355054" pbc="T T T"
Al       0.00000003      -0.00000002       9.97439563       0.00549626      -0.00000393       0.00000475      -0.02592398       0.00549626
Al       2.83241147      -0.00000002       9.97439564       0.00549622       0.00000168      -0.00000813      -0.02592480       0.00549622
Al       1.41620575       2.45294030       9.97439563       0.00549623      -0.00000266       0.00000067      -0.02592135       0.00549623
Al       4.24861720       2.45294029       9.97439564       0.00549622       0.00000206       0.00000268      -0.02592181       0.00549622
Al       1.41620576       0.81764675      12.30667723       0.01889905      -0.00000484       0.00000160      -0.01038855       0.01889905
Al       4.24861721       0.81764675      12.30667724       0.01889886       0.00000643      -0.00000168      -0.01039194       0.01889886
Al       2.83241148       3.27058707      12.30667723       0.01889896      -0.00000421       0.00000318      -0.01039796       0.01889896
Al       5.66482293       3.27058706      12.30667724       0.01889884       0.00000479       0.00000224      -0.01039115       0.01889884
Al      -0.00000064       1.63529358      14.62549679       0.01890236      -0.00000876       0.00000039       0.01485652       0.01890236
Al       2.83241138       1.63529407      14.62549447       0.01890232       0.00000628      -0.00000433       0.01490237       0.01890232
Al       1.41620610       4.08823222      14.62549751       0.01890220      -0.00000188      -0.00000062       0.01486730       0.01890220
Al       4.24861678       4.08823275      14.62549431       0.01890218       0.00000375      -0.00000784       0.01488104       0.01890218
Al      -0.00000442      -0.00000238      16.95956742       0.00547624      -0.00000563      -0.00000977       0.02143781       0.00547624
Al       2.83241607      -0.00000039      16.95956772       0.00547642       0.00000583       0.00003033       0.02143928       0.00547642
Al       1.41620439       2.45294219      16.95956699       0.00547616       0.00003676      -0.00000088       0.02143730       0.00547616
Al       4.24861924       2.45294231      16.95956659       0.00547647      -0.00003568      -0.00001271       0.02143993       0.00547647
