&FCI NORB=   5,NELEC=   2,MS2= 1,
  ORBSYM=1,1,1,1,1,
  ISYM=0,
 /
 4.5545245746953587E-02   1   1   1   1
-7.3454258901003357E-05   1   1   1   2
 1.9818379940069429E-09   1   1   1   3
 9.5923540046141890E-06   1   1   1   4
 6.0260882281007214E-05   1   1   1   5
 4.2452007143514714E-02   1   1   2   2
-2.6368120597412603E-08   1   1   2   3
-5.7152792953427317E-05   1   1   2   4
 9.2445836837742616E-06   1   1   2   5
 2.7105607957370211E-02   1   1   3   3
-7.0199250542893489E-06   1   1   3   4
 1.0035879798486378E-06   1   1   3   5
 3.5353324315647874E-02   1   1   4   4
 3.4694063245690944E-04   1   1   4   5
 3.7142115819549466E-02   1   1   5   5
 8.1976650837880076E-03   1   2   1   2
-1.4340791928689615E-08   1   2   1   3
-4.3565850144695222E-06   1   2   1   4
 1.1061990853399013E-06   1   2   1   5
 7.2933864124270553E-05   1   2   2   2
 1.0266397568014899E-08   1   2   2   3
 8.6449218463265713E-07   1   2   2   4
 5.1003093504255556E-06   1   2   2   5
-2.6416670296490104E-08   1   2   3   3
 5.4658527170036795E-06   1   2   3   4
-1.9152230204060904E-06   1   2   3   5
-2.1027738737225666E-03   1   2   4   4
-7.1440731160395702E-03   1   2   4   5
 2.1034605143588178E-03   1   2   5   5
 5.3515877309583525E-03   1   3   1   3
-6.8988733739047447E-06   1   3   1   4
 8.7256362651119380E-07   1   3   1   5
 8.6719898231317418E-09   1   3   2   2
-8.8384114321012830E-09   1   3   2   3
 5.4823133659369490E-06   1   3   2   4
-1.8961020163225375E-06   1   3   2   5
 1.0199354206602676E-08   1   3   3   3
 1.1438223567938147E-07   1   3   3   4
 1.3603435761848141E-06   1   3   3   5
 7.6053503886804106E-09   1   3   4   4
 1.0429791110555697E-09   1   3   4   5
 6.3527141233723064E-09   1   3   5   5
 7.6019285831526087E-03   1   4   1   4
 1.1212793272636251E-02   1   4   1   5
 1.0604606199513349E-05   1   4   2   2
 5.3845848744368454E-06   1   4   2   3
-1.2523384011128076E-02   1   4   2   4
-3.7861860922986522E-03   1   4   2   5
 6.6424693871745163E-06   1   4   3   3
 2.6229691916771798E-09   1   4   3   4
 2.6553569234031298E-08   1   4   3   5
-9.3036173624708904E-06   1   4   4   4
-2.3776772713209649E-06   1   4   4   5
-7.4012844667212282E-06   1   4   5   5
 8.0823924967491981E-02   1   5   1   5
 6.6412783468305423E-05   1   5   2   2
-1.7396204342957060E-06   1   5   2   3
-7.8763772846928440E-02   1   5   2   4
 1.2529879739846832E-02   1   5   2   5
 4.2454051223692060E-05   1   5   3   3
 3.1861439322070779E-08   1   5   3   4
 1.1168645572586639E-07   1   5   3   5
-5.8923733970008853E-05   1   5   4   4
 2.4660636284339017E-07   1   5   4   5
-5.6889085378331890E-05   1   5   5   5
 4.5545294631378068E-02   2   2   2   2
-5.8713741908567925E-09   2   2   2   3
-6.5184029036969204E-05   2   2   2   4
 1.0335523641915954E-05   2   2   2   5
 2.7105239268897151E-02   2   2   3   3
-1.4948636850472375E-06   2   2   3   4
-1.0766032925048753E-05   2   2   3   5
 3.7141462518691132E-02   2   2   4   4
-3.4792251042637220E-04   2   2   4   5
 3.5354839140815497E-02   2   2   5   5
 5.3514139164807266E-03   2   3   2   3
-1.5971898120152371E-06   2   3   2   4
-1.0540986492104341E-05   2   3   2   5
-9.5898076688725468E-09   2   3   3   3
-1.7073942212741558E-06   2   3   3   4
 1.7404844902609448E-07   2   3   3   5
-1.3496774799370303E-08   2   3   4   4
-1.6575248658792555E-08   2   3   4   5
 9.2910075559875024E-09   2   3   5   5
 8.0830450186941377E-02   2   4   2   4
-1.1220595889991615E-02   2   4   2   5
-4.1034953567269390E-05   2   4   3   3
-2.4191808490419848E-08   2   4   3   4
-1.1088149799150053E-07   2   4   3   5
 6.1800977916970178E-05   2   4   4   4
-4.6009914799828214E-07   2   4   4   5
 5.5834515379215644E-05   2   4   5   5
 7.6044121707995894E-03   2   5   2   5
 6.4436431475198050E-06   2   5   3   3
 3.0116578361816617E-09   2   5   3   4
 1.0293609857241955E-08   2   5   3   5
-8.6576983441157573E-06   2   5   4   4
 5.5588411996710065E-07   2   5   4   5
-8.2827502737622526E-06   2   5   5   5
 2.0560113433973900E-02   3   3   3   3
-3.6407488848003898E-08   3   3   3   4
-2.2063817557515077E-08   3   3   3   5
 2.4221654930382058E-02   3   3   4   4
 1.2255873038015549E-07   3   3   4   5
 2.4222419579029660E-02   3   3   5   5
 6.0982298067042764E-03   3   4   3   4
 4.6656757130605344E-09   3   4   3   5
 5.9680325098660670E-07   3   4   4   4
 3.7192851285034844E-06   3   4   4   5
 1.6057291725554536E-05   3   4   5   5
 6.0981603147241331E-03   3   5   3   5
 3.7143321612562726E-06   3   5   4   4
 1.6064921774788718E-05   3   5   4   5
-7.1395618337689273E-06   3   5   5   5
 3.5696153914597392E-02   4   4   4   4
 2.4672522866738844E-03   4   4   4   5
 3.2258889846704449E-02   4   4   5   5
 9.4227038964119249E-03   4   5   4   5
-2.4668445878800391E-03   4   5   5   5
 3.5699336243277077E-02   5   5   5   5
-4.6202428578625582E-02   1   1   0   0
-4.6506680084625407E-05   1   2   0   0
-1.6711992594879883E-08   1   3   0   0
-1.8447426955943603E-05   1   4   0   0
-1.1347260985935555E-04   1   5   0   0
-6.2500658497242519E-03   2   2   0   0
 4.3257404531984142E-08   2   3   0   0
 8.1943047845664698E-05   2   4   0   0
-1.2497548764746359E-05   2   5   0   0
 2.1942877363833949E-02   3   3   0   0
 1.9036649379271498E-06   3   4   0   0
 9.2138956786028035E-06   3   5   0   0
 8.7056720115445685E-02   4   4   0   0
-9.3055353604180827E-03   4   5   0   0
 2.5981138034475451E-02   5   5   0   0
-3.4758094860056303E+01   0   0   0   0
