 DBCSR| CPU Multiplication driver                                           XSMM (U)
 DBCSR| Multrec recursion limit                                              512 (U)
 DBCSR| Multiplication stack size                                           1000 (D)
 DBCSR| Maximum elements for images                                    UNLIMITED (U)
 DBCSR| Multiplicative factor virtual images                                   1 (U)
 DBCSR| Use multiplication densification                                       T (D)
 DBCSR| Multiplication size stacks                                             3 (U)
 DBCSR| Use memory pool for CPU allocation                                     F (U)
 DBCSR| Number of 3D layers                                               SINGLE (U)
 DBCSR| Use MPI memory allocation                                              F (U)
 DBCSR| Use RMA algorithm                                                      F (U)
 DBCSR| Use Communication thread                                               T (U)
 DBCSR| Communication thread load                                             87 (D)
 DBCSR| MPI: My process id                                                     0
 DBCSR| MPI: Number of processes                                              16
 DBCSR| OMP: Current number of threads                                         1
 DBCSR| OMP: Max number of threads                                             1
 DBCSR| Split modifier for TAS multiplication algorithm                  1.0E+00 (U)


  **** **** ******  **  PROGRAM STARTED AT               2024-08-21 19:43:37.128
 ***** ** ***  *** **   PROGRAM STARTED ON                          4e3c4a952958
 **    ****   ******    PROGRAM STARTED BY                             <unknown>
 ***** **    ** ** **   PROGRAM PROCESS ID                                   587
  **** **  *******  **  PROGRAM STARTED IN                                  /mnt

 CP2K| version string:                                       CP2K version 2024.2
 CP2K| source code revision number:                                  git:615b0eb
 CP2K| cp2kflags: omp libint fftw3 libxc libgrpp pexsi elpa parallel scalapack c
 CP2K|            osma quip xsmm plumed2 spglib libdftd4 sirius libvori libbqb l
 CP2K|            libtorch libvdwxc hdf5
 CP2K| is freely available from                            https://www.cp2k.org/
 CP2K| Program compiled at                          Mon Aug 12 15:42:01 UTC 2024
 CP2K| Program compiled on                                          28cbc1ee97e9
 CP2K| Program compiled for                                                local
 CP2K| Data directory path                                        /opt/cp2k/data
 CP2K| Input file name                                    Al111_active_space.inp

 GLOBAL| Force Environment number                                              1
 GLOBAL| Basis set file name                                        BASIS_MOLOPT
 GLOBAL| Potential file name                                           POTENTIAL
 GLOBAL| MM Potential file name                                     MM_POTENTIAL
 GLOBAL| Coordinate file name                                      __STD_INPUT__
 GLOBAL| Method name                                                        CP2K
 GLOBAL| Project name                                         Al111_active_space
 GLOBAL| Run type                                                         ENERGY
 GLOBAL| FFT library                                                       FFTW3
 GLOBAL| Diagonalization library                                            ELPA
 GLOBAL| DGEMM library                                                      BLAS
 GLOBAL| Minimum number of eigenvectors for ELPA usage                        16
 GLOBAL| Orthonormality check for eigenvectors                          DISABLED
 GLOBAL| Matrix multiplication library                                     COSMA
 GLOBAL| All-to-all communication in single precision                          F
 GLOBAL| FFTs using library dependent lengths                                  F
 GLOBAL| Grid backend                                                       AUTO
 GLOBAL| Global print level                                               MEDIUM
 GLOBAL| MPI I/O enabled                                                       T
 GLOBAL| Total number of message passing processes                            16
 GLOBAL| Number of threads for this process                                    1
 GLOBAL| This output is from process                                           0
 GLOBAL| Stack size for threads created by OpenMP (OMP_STACKSIZE)            16M
 GLOBAL| CPU model name                                  AMD EPYC 7R13 Processor
 GLOBAL| CPUID                                                              1002
 GLOBAL| Compiled for CPUID                                                    0

 *** HINT in environment.F:921 :: The compiler target flags (generic) used ***
 *** to build this binary cannot exploit all extensions of this CPU model  ***
 *** (x86_avx2). Consider compiler target flags as part of FCFLAGS and     ***
 *** CFLAGS (ARCH file).                                                   ***


 MEMORY| system memory details [Kb]
 MEMORY|                        rank 0           min           max       average
 MEMORY| MemTotal            387819256     387819256     387819256     387819256
 MEMORY| MemFree             371656292     371656292     371656292     371656292
 MEMORY| Buffers                 93144         93144         93144         93144
 MEMORY| Cached                7236632       7236632       7236632       7236632
 MEMORY| Slab                  1087024       1087024       1087024       1087024
 MEMORY| SReclaimable           541172        541172        541172        541172
 MEMORY| MemLikelyFree       379527240     379527240     379527240     379527240


 *** Fundamental physical constants (SI units) ***

 *** Literature: B. J. Mohr and B. N. Taylor,
 ***             CODATA recommended values of the fundamental physical
 ***             constants: 2006, Web Version 5.1
 ***             http://physics.nist.gov/constants

 Speed of light in vacuum [m/s]                             2.99792458000000E+08
 Magnetic constant or permeability of vacuum [N/A**2]       1.25663706143592E-06
 Electric constant or permittivity of vacuum [F/m]          8.85418781762039E-12
 Planck constant (h) [J*s]                                  6.62606896000000E-34
 Planck constant (h-bar) [J*s]                              1.05457162825177E-34
 Elementary charge [C]                                      1.60217648700000E-19
 Electron mass [kg]                                         9.10938215000000E-31
 Electron g factor [ ]                                     -2.00231930436220E+00
 Proton mass [kg]                                           1.67262163700000E-27
 Fine-structure constant                                    7.29735253760000E-03
 Rydberg constant [1/m]                                     1.09737315685270E+07
 Avogadro constant [1/mol]                                  6.02214179000000E+23
 Boltzmann constant [J/K]                                   1.38065040000000E-23
 Atomic mass unit [kg]                                      1.66053878200000E-27
 Bohr radius [m]                                            5.29177208590000E-11

 *** Conversion factors ***

 [u] -> [a.u.]                                              1.82288848426455E+03
 [Angstrom] -> [Bohr] = [a.u.]                              1.88972613288564E+00
 [a.u.] = [Bohr] -> [Angstrom]                              5.29177208590000E-01
 [a.u.] -> [s]                                              2.41888432650478E-17
 [a.u.] -> [fs]                                             2.41888432650478E-02
 [a.u.] -> [J]                                              4.35974393937059E-18
 [a.u.] -> [N]                                              8.23872205491840E-08
 [a.u.] -> [K]                                              3.15774647902944E+05
 [a.u.] -> [kJ/mol]                                         2.62549961709828E+03
 [a.u.] -> [kcal/mol]                                       6.27509468713739E+02
 [a.u.] -> [Pa]                                             2.94210107994716E+13
 [a.u.] -> [bar]                                            2.94210107994716E+08
 [a.u.] -> [atm]                                            2.90362800883016E+08
 [a.u.] -> [eV]                                             2.72113838565563E+01
 [a.u.] -> [Hz]                                             6.57968392072181E+15
 [a.u.] -> [1/cm] (wave numbers)                            2.19474631370540E+05
 [a.u./Bohr**2] -> [1/cm]                                   5.14048714338585E+03
 

 CELL_TOP| Volume [angstrom^3]:                                       472.446064
 CELL_TOP| Vector a [angstrom     5.665     0.000     0.000   |a| =     5.664823
 CELL_TOP| Vector b [angstrom     2.832     4.906     0.000   |b| =     5.664823
 CELL_TOP| Vector c [angstrom     0.000     0.000    17.000   |c| =    17.000000
 CELL_TOP| Angle (b,c), alpha [degree]:                                90.000000
 CELL_TOP| Angle (a,c), beta  [degree]:                                90.000000
 CELL_TOP| Angle (a,b), gamma [degree]:                                60.000001
 CELL_TOP| Numerically orthorhombic:                                          NO
 CELL_TOP| Periodicity                                                       XYZ

 GENERATE|  Preliminary Number of Bonds generated:                             0
 GENERATE|  Achieved consistency in connectivity generation.

 CELL| Volume [angstrom^3]:                                           472.446064
 CELL| Vector a [angstrom]:       5.665     0.000     0.000   |a| =     5.664823
 CELL| Vector b [angstrom]:       2.832     4.906     0.000   |b| =     5.664823
 CELL| Vector c [angstrom]:       0.000     0.000    17.000   |c| =    17.000000
 CELL| Angle (b,c), alpha [degree]:                                    90.000000
 CELL| Angle (a,c), beta  [degree]:                                    90.000000
 CELL| Angle (a,b), gamma [degree]:                                    60.000001
 CELL| Numerically orthorhombic:                                              NO
 CELL| Periodicity                                                           XYZ

 CELL_REF| Volume [angstrom^3]:                                       472.446064
 CELL_REF| Vector a [angstrom     5.665     0.000     0.000   |a| =     5.664823
 CELL_REF| Vector b [angstrom     2.832     4.906     0.000   |b| =     5.664823
 CELL_REF| Vector c [angstrom     0.000     0.000    17.000   |c| =    17.000000
 CELL_REF| Angle (b,c), alpha [degree]:                                90.000000
 CELL_REF| Angle (a,c), beta  [degree]:                                90.000000
 CELL_REF| Angle (a,b), gamma [degree]:                                60.000001
 CELL_REF| Numerically orthorhombic:                                          NO
 CELL_REF| Periodicity                                                       XYZ

 *******************************************************************************
 *******************************************************************************
 **                                                                           **
 **     #####                         ##              ##                      **
 **    ##   ##            ##          ##              ##                      **
 **   ##     ##                       ##            ######                    **
 **   ##     ##  ##   ##  ##   #####  ##  ##   ####   ##    #####    #####    **
 **   ##     ##  ##   ##  ##  ##      ## ##   ##      ##   ##   ##  ##   ##   **
 **   ##  ## ##  ##   ##  ##  ##      ####     ###    ##   ######   ######    **
 **    ##  ###   ##   ##  ##  ##      ## ##      ##   ##   ##       ##        **
 **     #######   #####   ##   #####  ##  ##  ####    ##    #####   ##        **
 **           ##                                                    ##        **
 **                                                                           **
 **                                                ... make the atoms dance   **
 **                                                                           **
 **            Copyright (C) by CP2K developers group (2000-2024)             **
 **                      J. Chem. Phys. 152, 194103 (2020)                    **
 **                                                                           **
 *******************************************************************************

 DFT| Spin restricted Kohn-Sham (RKS) calculation                            RKS
 DFT| Multiplicity                                                             1
 DFT| Number of spin states                                                    1
 DFT| Charge                                                                   0
 DFT| Self-interaction correction (SIC)                                       NO
 DFT| Cutoffs: density                                              1.000000E-10
 DFT|          gradient                                             1.000000E-10
 DFT|          tau                                                  1.000000E-10
 DFT|          cutoff_smoothing_range                               0.000000E+00
 DFT| XC density smoothing                                                  NONE
 DFT| XC derivatives                                                          PW

 FUNCTIONAL| PBE:
 FUNCTIONAL| J.P.Perdew, K.Burke, M.Ernzerhof, Phys. Rev. Letter, vol. 77, n 18,
 FUNCTIONAL|  pp. 3865-3868, (1996) {spin unpolarized}                          


 QS| Method:                                                                 GPW
 QS| Density plane wave grid type                        NON-SPHERICAL FULLSPACE
 QS| Number of grid levels:                                                    5
 QS| Density cutoff [a.u.]:                                                250.0
 QS| Multi grid cutoff [a.u.]: 1) grid level                               250.0
 QS|                           2) grid level                                83.3
 QS|                           3) grid level                                27.8
 QS|                           4) grid level                                 9.3
 QS|                           5) grid level                                 3.1
 QS| Grid level progression factor:                                          3.0
 QS| Relative density cutoff [a.u.]:                                        30.0
 QS| Interaction thresholds: eps_pgf_orb:                                3.2E-03
 QS|                         eps_filter_matrix:                          0.0E+00
 QS|                         eps_core_charge:                            1.0E-07
 QS|                         eps_rho_gspace:                             1.0E-05
 QS|                         eps_rho_rspace:                             1.0E-05
 QS|                         eps_gvg_rspace:                             3.2E-03
 QS|                         eps_ppl:                                    1.0E-02
 QS|                         eps_ppnl:                                   3.2E-05


 ATOMIC KIND INFORMATION

  1. Atomic kind: Al                                    Number of atoms:      16

     Orbital Basis Set                                        DZVP-MOLOPT-SR-GTH

       Number of orbital shell sets:                                           1
       Number of orbital shells:                                               5
       Number of primitive Cartesian functions:                                4
       Number of Cartesian basis functions:                                   14
       Number of spherical basis functions:                                   13
       Norm type:                                                              2

       Normalised Cartesian orbitals:

                        Set   Shell   Orbital            Exponent    Coefficient

                          1       1    2s                1.212902       0.147703
                                                         0.454181       0.176942
                                                         0.242419      -0.255412
                                                         0.078268      -0.047918

                          1       2    3s                1.212902      -0.205401
                                                         0.454181      -0.282784
                                                         0.242419       0.451246
                                                         0.078268      -0.188270

                          1       3    3px               1.212902       0.054477
                                                         0.454181       0.028713
                                                         0.242419      -0.164201
                                                         0.078268      -0.027375
                          1       3    3py               1.212902       0.054477
                                                         0.454181       0.028713
                                                         0.242419      -0.164201
                                                         0.078268      -0.027375
                          1       3    3pz               1.212902       0.054477
                                                         0.454181       0.028713
                                                         0.242419      -0.164201
                                                         0.078268      -0.027375

                          1       4    4px               1.212902      -0.161995
                                                         0.454181       0.034524
                                                         0.242419       0.284421
                                                         0.078268      -0.077718
                          1       4    4py               1.212902      -0.161995
                                                         0.454181       0.034524
                                                         0.242419       0.284421
                                                         0.078268      -0.077718
                          1       4    4pz               1.212902      -0.161995
                                                         0.454181       0.034524
                                                         0.242419       0.284421
                                                         0.078268      -0.077718

                          1       5    4dx2              1.212902       0.283929
                                                         0.454181       0.086552
                                                         0.242419       0.083045
                                                         0.078268       0.004803
                          1       5    4dxy              1.212902       0.491779
                                                         0.454181       0.149912
                                                         0.242419       0.143839
                                                         0.078268       0.008319
                          1       5    4dxz              1.212902       0.491779
                                                         0.454181       0.149912
                                                         0.242419       0.143839
                                                         0.078268       0.008319
                          1       5    4dy2              1.212902       0.283929
                                                         0.454181       0.086552
                                                         0.242419       0.083045
                                                         0.078268       0.004803
                          1       5    4dyz              1.212902       0.491779
                                                         0.454181       0.149912
                                                         0.242419       0.143839
                                                         0.078268       0.008319
                          1       5    4dz2              1.212902       0.283929
                                                         0.454181       0.086552
                                                         0.242419       0.083045
                                                         0.078268       0.004803

       Atomic covalent radius [Angstrom]:                                  1.180

       Atomic van der Waals radius [Angstrom]:                             1.840

     GTH Potential information for                                    GTH-PBE-q3

       Description:                       Goedecker-Teter-Hutter pseudopotential
                                           Goedecker et al., PRB 54, 1703 (1996)
                                          Hartwigsen et al., PRB 58, 3641 (1998)
                                                      Krack, TCA 114, 145 (2005)

       Gaussian exponent of the core charge distribution:               2.469136
       Electronic configuration (s p d ...):                               2   1

       Parameters of the local part of the GTH pseudopotential:

                          rloc        C1          C2          C3          C4
                        0.450000   -7.554761

       Parameters of the non-local part of the GTH pseudopotential:

                   l      r(l)      h(i,j,l)

                   0    0.487435    6.959938   -1.888836
                                   -1.888836    2.438477
                   1    0.562189    1.865299


 MOLECULE KIND INFORMATION


 All atoms are their own molecule, skipping detailed information


 TOTAL NUMBERS AND MAXIMUM NUMBERS

  Total number of            - Atomic kinds:                                   1
                             - Atoms:                                         16
                             - Shell sets:                                    16
                             - Shells:                                        80
                             - Primitive Cartesian functions:                 64
                             - Cartesian basis functions:                    224
                             - Spherical basis functions:                    208

  Maximum angular momentum of- Orbital basis functions:                        2
                             - Local part of the GTH pseudopotential:          0
                             - Non-local part of the GTH pseudopotential:      2


 MODULE QUICKSTEP: ATOMIC COORDINATES IN ANGSTROM

   Atom Kind Element         X             Y             Z       Z(eff)     Mass
      1    1 Al   13      0.000000     -0.000000      9.974396   3.0000  26.9815
      2    1 Al   13      2.832411     -0.000000      9.974396   3.0000  26.9815
      3    1 Al   13      1.416206      2.452940      9.974396   3.0000  26.9815
      4    1 Al   13      4.248617      2.452940      9.974396   3.0000  26.9815
      5    1 Al   13      1.416206      0.817647     12.306677   3.0000  26.9815
      6    1 Al   13      4.248617      0.817647     12.306677   3.0000  26.9815
      7    1 Al   13      2.832411      3.270587     12.306677   3.0000  26.9815
      8    1 Al   13      5.664823      3.270587     12.306677   3.0000  26.9815
      9    1 Al   13     -0.000001      1.635294     14.625497   3.0000  26.9815
     10    1 Al   13      2.832411      1.635294     14.625494   3.0000  26.9815
     11    1 Al   13      1.416206      4.088232     14.625498   3.0000  26.9815
     12    1 Al   13      4.248617      4.088233     14.625494   3.0000  26.9815
     13    1 Al   13     -0.000004     -0.000002     16.959567   3.0000  26.9815
     14    1 Al   13      2.832416     -0.000000     16.959568   3.0000  26.9815
     15    1 Al   13      1.416204      2.452942     16.959567   3.0000  26.9815
     16    1 Al   13      4.248619      2.452942     16.959567   3.0000  26.9815



 SCF PARAMETERS         Density guess:                                   RESTART
                        --------------------------------------------------------
                        max_scf:                                             100
                        max_scf_history:                                       0
                        max_diis:                                              4
                        --------------------------------------------------------
                        eps_scf:                                        1.00E-06
                        eps_scf_history:                                0.00E+00
                        eps_diis:                                       1.00E-01
                        eps_eigval:                                     1.00E-05
                        --------------------------------------------------------
                        level_shift [a.u.]:                             0.000000
                        added MOs                                        20    0
                        --------------------------------------------------------
                        Mixing method:                            BROYDEN_MIXING
                                                charge density mixing in g-space
                        --------------------------------------------------------
                        Smear method:                                FERMI_DIRAC
                        Electronic temperature [K]:                        300.0
                        Electronic temperature [a.u.]:                  9.50E-04
                        Accuracy threshold:                             1.00E-10
                        --------------------------------------------------------
                        No outer SCF

 PW_GRID| Information for grid number                                          1
 PW_GRID| Grid distributed over                                    16 processors
 PW_GRID| Real space group dimensions                                    16    1
 PW_GRID| the grid is blocked:                                                NO
 PW_GRID| Cutoff [a.u.]                                                    250.0
 PW_GRID| spherical cutoff:                                                   NO
 PW_GRID|   Bounds   1            -40      39                Points:          80
 PW_GRID|   Bounds   2            -40      39                Points:          80
 PW_GRID|   Bounds   3           -120     119                Points:         240
 PW_GRID| Volume element (a.u.^3)  0.2076E-02     Volume (a.u.^3)      3188.2241
 PW_GRID| Grid span                                                    FULLSPACE
 PW_GRID|   Distribution                         Average         Max         Min
 PW_GRID|   G-Vectors                            96000.0       96000       96000
 PW_GRID|   G-Rays                                1200.0        1200        1200
 PW_GRID|   Real Space Points                    96000.0       96000       96000

 PW_GRID| Information for grid number                                          2
 PW_GRID| Number of the reference grid                                         1
 PW_GRID| Grid distributed over                                    16 processors
 PW_GRID| Real space group dimensions                                    16    1
 PW_GRID| the grid is blocked:                                                NO
 PW_GRID| Cutoff [a.u.]                                                     83.3
 PW_GRID| spherical cutoff:                                                   NO
 PW_GRID|   Bounds   1            -22      22                Points:          45
 PW_GRID|   Bounds   2            -22      22                Points:          45
 PW_GRID|   Bounds   3            -67      67                Points:         135
 PW_GRID| Volume element (a.u.^3)  0.1166E-01     Volume (a.u.^3)      3188.2241
 PW_GRID| Grid span                                                    FULLSPACE
 PW_GRID|   Distribution                         Average         Max         Min
 PW_GRID|   G-Vectors                            17085.9       17685       15120
 PW_GRID|   G-Rays                                 379.7         393         336
 PW_GRID|   Real Space Points                    17085.9       18225       12150

 PW_GRID| Information for grid number                                          3
 PW_GRID| Number of the reference grid                                         1
 PW_GRID| Grid distributed over                                    16 processors
 PW_GRID| Real space group dimensions                                    16    1
 PW_GRID| the grid is blocked:                                                NO
 PW_GRID| Cutoff [a.u.]                                                     27.8
 PW_GRID| spherical cutoff:                                                   NO
 PW_GRID|   Bounds   1            -12      12                Points:          25
 PW_GRID|   Bounds   2            -12      12                Points:          25
 PW_GRID|   Bounds   3            -40      39                Points:          80
 PW_GRID| Volume element (a.u.^3)  0.6376E-01     Volume (a.u.^3)      3188.2241
 PW_GRID| Grid span                                                    FULLSPACE
 PW_GRID|   Distribution                         Average         Max         Min
 PW_GRID|   G-Vectors                             3125.0        3225        3050
 PW_GRID|   G-Rays                                 125.0         129         122
 PW_GRID|   Real Space Points                     3125.0        4000        2000

 PW_GRID| Information for grid number                                          4
 PW_GRID| Number of the reference grid                                         1
 PW_GRID| Grid distributed over                                    16 processors
 PW_GRID| Real space group dimensions                                     4    4
 PW_GRID| the grid is blocked:                                                NO
 PW_GRID| Cutoff [a.u.]                                                      9.3
 PW_GRID| spherical cutoff:                                                   NO
 PW_GRID|   Bounds   1             -7       7                Points:          15
 PW_GRID|   Bounds   2             -7       7                Points:          15
 PW_GRID|   Bounds   3            -22      22                Points:          45
 PW_GRID| Volume element (a.u.^3)  0.3149         Volume (a.u.^3)      3188.2241
 PW_GRID| Grid span                                                    FULLSPACE
 PW_GRID|   Distribution                         Average         Max         Min
 PW_GRID|   G-Vectors                              632.8         675         600
 PW_GRID|   G-Rays                                  42.2          45          40
 PW_GRID|   Real Space Points                      632.8         720         405

 PW_GRID| Information for grid number                                          5
 PW_GRID| Number of the reference grid                                         1
 PW_GRID| Grid distributed over                                    16 processors
 PW_GRID| Real space group dimensions                                     4    4
 PW_GRID| the grid is blocked:                                                NO
 PW_GRID| Cutoff [a.u.]                                                      3.1
 PW_GRID| spherical cutoff:                                                   NO
 PW_GRID|   Bounds   1             -4       4                Points:           9
 PW_GRID|   Bounds   2             -4       4                Points:           9
 PW_GRID|   Bounds   3            -12      12                Points:          25
 PW_GRID| Volume element (a.u.^3)   1.574         Volume (a.u.^3)      3188.2241
 PW_GRID| Grid span                                                    FULLSPACE
 PW_GRID|   Distribution                         Average         Max         Min
 PW_GRID|   G-Vectors                              126.6         162         108
 PW_GRID|   G-Rays                                  14.1          18          12
 PW_GRID|   Real Space Points                      126.6         225         100

 POISSON| Solver                                                        PERIODIC
 POISSON| Periodicity                                                        XYZ

 RS_GRID| Information for grid number                                          1
 RS_GRID|   Bounds   1            -40      39                Points:          80
 RS_GRID|   Bounds   2            -40      39                Points:          80
 RS_GRID|   Bounds   3           -120     119                Points:         240
 RS_GRID| Real space distribution over                                 16 groups
 RS_GRID| Real space distribution along direction                              3
 RS_GRID| Border size                                                         29
 RS_GRID|   Distribution                         Average         Max         Min
 RS_GRID|   Planes                                  73.0          73          73

 RS_GRID| Information for grid number                                          2
 RS_GRID|   Bounds   1            -22      22                Points:          45
 RS_GRID|   Bounds   2            -22      22                Points:          45
 RS_GRID|   Bounds   3            -67      67                Points:         135
 RS_GRID| Real space distribution over                                 16 groups
 RS_GRID| Real space distribution along direction                              3
 RS_GRID| Border size                                                         27
 RS_GRID|   Distribution                         Average         Max         Min
 RS_GRID|   Planes                                  62.4          63          62

 RS_GRID| Information for grid number                                          3
 RS_GRID|   Bounds   1            -12      12                Points:          25
 RS_GRID|   Bounds   2            -12      12                Points:          25
 RS_GRID|   Bounds   3            -40      39                Points:          80
 RS_GRID| Real space fully replicated
 RS_GRID| Group size                                                           1

 RS_GRID| Information for grid number                                          4
 RS_GRID|   Bounds   1             -7       7                Points:          15
 RS_GRID|   Bounds   2             -7       7                Points:          15
 RS_GRID|   Bounds   3            -22      22                Points:          45
 RS_GRID| Real space fully replicated
 RS_GRID| Group size                                                           1

 RS_GRID| Information for grid number                                          5
 RS_GRID|   Bounds   1             -4       4                Points:           9
 RS_GRID|   Bounds   2             -4       4                Points:           9
 RS_GRID|   Bounds   3            -12      12                Points:          25
 RS_GRID| Real space fully replicated
 RS_GRID| Group size                                                           1

 Number of electrons:                                                         48
 Number of occupied orbitals:                                                 24
 Number of molecular orbitals:                                                44

 Number of orbital functions:                                                208
 Number of independent orbital functions:                                    208

 Extrapolation method: initial_guess

 *** WARNING in qs_initial_guess.F:306 :: User requested to restart the  ***
 *** wavefunction from the file named: Al111_active_space-RESTART.wfn.   ***
 *** This file does not exist. Please check the existence of the file or ***
 *** change properly the value of the keyword WFN_RESTART_FILE_NAME.     ***
 *** Calculation continues using ATOMIC GUESS.                           ***


 Atomic guess: The first density matrix is obtained in terms of atomic orbitals
               and electronic configurations assigned to each atomic kind

 Guess for atomic kind: Al

 Electronic structure
    Total number of core electrons                                         10.00
    Total number of valence electrons                                       3.00
    Total number of electrons                                              13.00
    Multiplicity                                                   not specified
    S   [  2.00  2.00] 2.00
    P   [  6.00] 1.00


 *******************************************************************************
                  Iteration          Convergence                     Energy [au]
 *******************************************************************************
                          1        0.305915E-01                  -1.859601069933
                          2        0.524000E-02                  -1.861110285590
                          3        0.579159E-05                  -1.861153364112
                          4        0.938920E-07                  -1.861153364138

 Energy components [Hartree]           Total Energy ::           -1.861153364138
                                        Band Energy ::           -0.553286143720
                                     Kinetic Energy ::            0.692453408885
                                   Potential Energy ::           -2.553606773023
                                      Virial (-V/T) ::            3.687766917250
                                        Core Energy ::           -2.745654507139
                                          XC Energy ::           -0.605922783649
                                     Coulomb Energy ::            1.490423926650
                       Total Pseudopotential Energy ::           -3.492083735852
                       Local Pseudopotential Energy ::           -3.961694608532
                    Nonlocal Pseudopotential Energy ::            0.469610872680
                                        Confinement ::            0.539758198286

 Orbital energies  State     L     Occupation   Energy[a.u.]          Energy[eV]

                       1     0          2.000      -0.248205           -6.754004

                       1     1          1.000      -0.056876           -1.547674


 Total Electron Density at R=0:                                         0.000121
 Re-scaling the density matrix to get the right number of electrons
                  # Electrons              Trace(P)               Scaling factor
                           48                47.857                        1.003


 SCF WAVEFUNCTION OPTIMIZATION

  Step     Update method      Time    Convergence         Total energy    Change
  ------------------------------------------------------------------------------

 *** WARNING in fm/cp_fm_elpa.F:522 :: Setting real_kernel for ELPA failed ***

     1 NoMix/Diag. 0.10E+00    0.1   177.94628348       -35.0779464329 -3.51E+01

 *** WARNING in fm/cp_fm_elpa.F:522 :: Setting real_kernel for ELPA failed ***

     2 Broy./Diag. 0.10E+00    0.2     0.40081090       -35.5740327799 -4.96E-01

 *** WARNING in fm/cp_fm_elpa.F:522 :: Setting real_kernel for ELPA failed ***

     3 Broy./Diag. 0.10E+00    0.2     3.33091501       -35.0342178947  5.40E-01

 *** WARNING in fm/cp_fm_elpa.F:522 :: Setting real_kernel for ELPA failed ***

     4 Broy./Diag. 0.10E+00    0.2     0.94024566       -35.2219267572 -1.88E-01

 *** WARNING in fm/cp_fm_elpa.F:522 :: Setting real_kernel for ELPA failed ***

     5 Broy./Diag. 0.10E+00    0.2     0.90925714       -34.5593289106  6.63E-01

 *** WARNING in fm/cp_fm_elpa.F:522 :: Setting real_kernel for ELPA failed ***

     6 Broy./Diag. 0.10E+00    0.2     0.38050720       -34.6878494007 -1.29E-01

 *** WARNING in fm/cp_fm_elpa.F:522 :: Setting real_kernel for ELPA failed ***

     7 Broy./Diag. 0.10E+00    0.2     0.15094421       -34.6381037892  4.97E-02

 *** WARNING in fm/cp_fm_elpa.F:522 :: Setting real_kernel for ELPA failed ***

     8 Broy./Diag. 0.10E+00    0.2     0.07077742       -34.6048491230  3.33E-02

 *** WARNING in fm/cp_fm_elpa.F:522 :: Setting real_kernel for ELPA failed ***

     9 Broy./Diag. 0.10E+00    0.2     0.08442302       -34.6136079756 -8.76E-03

 *** WARNING in fm/cp_fm_elpa.F:522 :: Setting real_kernel for ELPA failed ***

    10 Broy./Diag. 0.10E+00    0.2     0.05712987       -34.6314804952 -1.79E-02

 *** WARNING in fm/cp_fm_elpa.F:522 :: Setting real_kernel for ELPA failed ***

    11 Broy./Diag. 0.10E+00    0.2     0.12406610       -34.6836757211 -5.22E-02

 *** WARNING in fm/cp_fm_elpa.F:522 :: Setting real_kernel for ELPA failed ***

    12 Broy./Diag. 0.10E+00    0.2     0.00888052       -34.7210125990 -3.73E-02

 *** WARNING in fm/cp_fm_elpa.F:522 :: Setting real_kernel for ELPA failed ***

    13 Broy./Diag. 0.10E+00    0.2     0.01451508       -34.7257214287 -4.71E-03

 *** WARNING in fm/cp_fm_elpa.F:522 :: Setting real_kernel for ELPA failed ***

    14 Broy./Diag. 0.10E+00    0.2     0.01057032       -34.7335942175 -7.87E-03

 *** WARNING in fm/cp_fm_elpa.F:522 :: Setting real_kernel for ELPA failed ***

    15 Broy./Diag. 0.10E+00    0.2     0.00082146       -34.7353578005 -1.76E-03

 *** WARNING in fm/cp_fm_elpa.F:522 :: Setting real_kernel for ELPA failed ***

    16 Broy./Diag. 0.10E+00    0.2     0.00158428       -34.7311648084  4.19E-03

 *** WARNING in fm/cp_fm_elpa.F:522 :: Setting real_kernel for ELPA failed ***

    17 Broy./Diag. 0.10E+00    0.2     0.00095472       -34.7290734945  2.09E-03

 *** WARNING in fm/cp_fm_elpa.F:522 :: Setting real_kernel for ELPA failed ***

    18 Broy./Diag. 0.10E+00    0.2     0.00082759       -34.7250954813  3.98E-03

 *** WARNING in fm/cp_fm_elpa.F:522 :: Setting real_kernel for ELPA failed ***

    19 Broy./Diag. 0.10E+00    0.2     0.00156034       -34.7250445792  5.09E-05

 *** WARNING in fm/cp_fm_elpa.F:522 :: Setting real_kernel for ELPA failed ***

    20 Broy./Diag. 0.10E+00    0.2     0.00231144       -34.7250326937  1.19E-05

 *** WARNING in fm/cp_fm_elpa.F:522 :: Setting real_kernel for ELPA failed ***

    21 Broy./Diag. 0.10E+00    0.2     0.00295345       -34.7260765006 -1.04E-03

 *** WARNING in fm/cp_fm_elpa.F:522 :: Setting real_kernel for ELPA failed ***

    22 Broy./Diag. 0.10E+00    0.2     0.00168621       -34.7267380060 -6.62E-04

 *** WARNING in fm/cp_fm_elpa.F:522 :: Setting real_kernel for ELPA failed ***

    23 Broy./Diag. 0.10E+00    0.2     0.00216420       -34.7274937164 -7.56E-04

 *** WARNING in fm/cp_fm_elpa.F:522 :: Setting real_kernel for ELPA failed ***

    24 Broy./Diag. 0.10E+00    0.2     0.00118183       -34.7279218801 -4.28E-04

 *** WARNING in fm/cp_fm_elpa.F:522 :: Setting real_kernel for ELPA failed ***

    25 Broy./Diag. 0.10E+00    0.2     0.00119740       -34.7288730011 -9.51E-04

 *** WARNING in fm/cp_fm_elpa.F:522 :: Setting real_kernel for ELPA failed ***

    26 Broy./Diag. 0.10E+00    0.2     0.00042872       -34.7294504295 -5.77E-04

 *** WARNING in fm/cp_fm_elpa.F:522 :: Setting real_kernel for ELPA failed ***

    27 Broy./Diag. 0.10E+00    0.2     0.00001570       -34.7294424217  8.01E-06

 *** WARNING in fm/cp_fm_elpa.F:522 :: Setting real_kernel for ELPA failed ***

    28 Broy./Diag. 0.10E+00    0.2     0.00003996       -34.7292892589  1.53E-04

 *** WARNING in fm/cp_fm_elpa.F:522 :: Setting real_kernel for ELPA failed ***

    29 Broy./Diag. 0.10E+00    0.2     0.00000939       -34.7292874228  1.84E-06

 *** WARNING in fm/cp_fm_elpa.F:522 :: Setting real_kernel for ELPA failed ***

    30 Broy./Diag. 0.10E+00    0.2     0.00004327       -34.7292095720  7.79E-05

 *** WARNING in fm/cp_fm_elpa.F:522 :: Setting real_kernel for ELPA failed ***

    31 Broy./Diag. 0.10E+00    0.2     0.00001338       -34.7291895614  2.00E-05

 *** WARNING in fm/cp_fm_elpa.F:522 :: Setting real_kernel for ELPA failed ***

    32 Broy./Diag. 0.10E+00    0.2     0.00003374       -34.7291648677  2.47E-05

 *** WARNING in fm/cp_fm_elpa.F:522 :: Setting real_kernel for ELPA failed ***

    33 Broy./Diag. 0.10E+00    0.2     0.00001633       -34.7291472929  1.76E-05

 *** WARNING in fm/cp_fm_elpa.F:522 :: Setting real_kernel for ELPA failed ***

    34 Broy./Diag. 0.10E+00    0.2     0.00000473       -34.7291433841  3.91E-06

 *** WARNING in fm/cp_fm_elpa.F:522 :: Setting real_kernel for ELPA failed ***

    35 Broy./Diag. 0.10E+00    0.2     0.00000388       -34.7291389149  4.47E-06

 *** WARNING in fm/cp_fm_elpa.F:522 :: Setting real_kernel for ELPA failed ***

    36 Broy./Diag. 0.10E+00    0.2     0.00000225       -34.7291366620  2.25E-06

 *** WARNING in fm/cp_fm_elpa.F:522 :: Setting real_kernel for ELPA failed ***

    37 Broy./Diag. 0.10E+00    0.2     0.00000173       -34.7291351695  1.49E-06

 *** WARNING in fm/cp_fm_elpa.F:522 :: Setting real_kernel for ELPA failed ***

    38 Broy./Diag. 0.10E+00    0.2     0.00000122       -34.7291342224  9.47E-07

 *** WARNING in fm/cp_fm_elpa.F:522 :: Setting real_kernel for ELPA failed ***

    39 Broy./Diag. 0.10E+00    0.2     0.00000048       -34.7291342305 -8.19E-09

  *** SCF run converged in    39 steps ***


  Electronic density on regular grids:        -47.9928164904        0.0071835096
  Core density on regular grids:               47.9990832986       -0.0009167014
  Total charge density on r-space grids:        0.0062668082
  Total charge density g-space grids:           0.0062668082

  Overlap energy of the core charge distribution:               0.00000000000000
  Self energy of the core charge distribution:                -90.27033336764102
  Core Hamiltonian energy:                                     17.18809970001072
  Hartree energy:                                              50.98642945306442
  Exchange-correlation energy:                                -12.62970171796566
  Electronic entropic energy:                                  -0.00362829800474
  Fermi energy:                                                 0.03238122830461

  Total energy:                                               -34.72913423053628

 MO| EIGENVALUES AND OCCUPATION NUMBERS
 MO|
 MO|  Index      Eigenvalue [a.u.]        Eigenvalue [eV]             Occupation
 MO|      1              -0.350398              -9.534828               2.000000
 MO|      2              -0.286144              -7.786361               2.000000
 MO|      3              -0.256212              -6.971874               2.000000
 MO|      4              -0.243461              -6.624921               2.000000
 MO|      5              -0.197535              -5.375208               2.000000
 MO|      6              -0.125289              -3.409299               2.000000
 MO|      7              -0.067987              -1.850020               2.000000
 MO|      8              -0.067985              -1.849974               2.000000
 MO|      9              -0.067985              -1.849968               2.000000
 MO|     10              -0.065438              -1.780655               2.000000
 MO|     11              -0.065435              -1.780587               2.000000
 MO|     12              -0.065434              -1.780541               2.000000
 MO|     13              -0.039709              -1.080537               2.000000
 MO|     14              -0.039707              -1.080489               2.000000
 MO|     15              -0.039701              -1.080316               2.000000
 MO|     16              -0.035877              -0.976253               2.000000
 MO|     17              -0.035875              -0.976205               2.000000
 MO|     18              -0.035873              -0.976142               2.000000
 MO|     19              -0.032528              -0.885127               2.000000
 MO|     20               0.012770               0.347498               2.000000
 MO|     21               0.012771               0.347512               2.000000
 MO|     22               0.012772               0.347551               2.000000
 MO|     23               0.031720               0.863139               1.334708
 MO|     24               0.031724               0.863241               1.332949
 MO|     25               0.031725               0.863276               1.332343
 MO|     26               0.070844               1.927762               0.000000
 MO|     27               0.089509               2.435664               0.000000
 MO|     28               0.089509               2.435670               0.000000
 MO|     29               0.089519               2.435928               0.000000
 MO|     30               0.102001               2.775599               0.000000
 MO|     31               0.102005               2.775684               0.000000
 MO|     32               0.102007               2.775753               0.000000
 MO|     33               0.170059               4.627532               0.000000
 MO|     34               0.175300               4.770149               0.000000
 MO|     35               0.175300               4.770155               0.000000
 MO|     36               0.175303               4.770241               0.000000
 MO|     37               0.191112               5.200418               0.000000
 MO|     38               0.191124               5.200743               0.000000
 MO|     39               0.191128               5.200852               0.000000
 MO|     40               0.249831               6.798235               0.000000
 MO|     41               0.277467               7.550266               0.000000
 MO|     42               0.277488               7.550829               0.000000
 MO|     43               0.277550               7.552513               0.000000
 MO|     44               0.314486               8.557606               0.000000
 MO| Sum:                                                              48.000000
 MO| E(Fermi):            0.032381 a.u.          0.881138 eV


 !-----------------------------------------------------------------------------!
                     Mulliken Population Analysis

 #  Atom  Element  Kind  Atomic population                           Net charge
       1     Al       1          2.867366                              0.132634
       2     Al       1          2.867347                              0.132653
       3     Al       1          2.867368                              0.132632
       4     Al       1          2.867367                              0.132633
       5     Al       1          3.133393                             -0.133393
       6     Al       1          3.133393                             -0.133393
       7     Al       1          3.133376                             -0.133376
       8     Al       1          3.133369                             -0.133369
       9     Al       1          3.132338                             -0.132338
      10     Al       1          3.132334                             -0.132334
      11     Al       1          3.132362                             -0.132362
      12     Al       1          3.132360                             -0.132360
      13     Al       1          2.866909                              0.133091
      14     Al       1          2.866902                              0.133098
      15     Al       1          2.866910                              0.133090
      16     Al       1          2.866907                              0.133093
 # Total charge                             48.000000                  0.000000

 !-----------------------------------------------------------------------------!

 !-----------------------------------------------------------------------------!
                           Hirshfeld Charges

  #Atom  Element  Kind  Ref Charge     Population                    Net charge
      1       Al     1       3.000          3.011                        -0.011
      2       Al     1       3.000          3.011                        -0.011
      3       Al     1       3.000          3.011                        -0.011
      4       Al     1       3.000          3.011                        -0.011
      5       Al     1       3.000          2.983                         0.017
      6       Al     1       3.000          2.983                         0.017
      7       Al     1       3.000          2.983                         0.017
      8       Al     1       3.000          2.983                         0.017
      9       Al     1       3.000          2.983                         0.017
     10       Al     1       3.000          2.983                         0.017
     11       Al     1       3.000          2.983                         0.017
     12       Al     1       3.000          2.983                         0.017
     13       Al     1       3.000          3.011                        -0.011
     14       Al     1       3.000          3.011                        -0.011
     15       Al     1       3.000          3.011                        -0.011
     16       Al     1       3.000          3.011                        -0.011

  Total Charge                                                            0.050
 !-----------------------------------------------------------------------------!

 !-----------------------------------------------------------------------------!
                         Generate Active Space Hamiltonian
                          Interface to CAS-CI and DMRG-CI
 !-----------------------------------------------------------------------------!
  Hartree-Fock model for interaction Hamiltonian
  Total number of electrons                                                  48
  Number of inactive electrons                                               46
  Number of active electrons                                                  2

  Active space orbitals selected manually
  Number of inactive orbitals                                                23
  Number of active orbitals                                                   5

  Calculating virtual MOs...
 OT| Eigensolver reached convergence in 1 iterations

 *** WARNING in fm/cp_fm_elpa.F:522 :: Setting real_kernel for ELPA failed ***


  Orbital Energies and Selection for spin  1                     [atomic units]
        -0.350398  [I]     -0.286144  [I]     -0.256212  [I]     -0.243461  [I]
        -0.197535  [I]     -0.125289  [I]     -0.067987  [I]     -0.067985  [I]
        -0.067985  [I]     -0.065438  [I]     -0.065435  [I]     -0.065434  [I]
        -0.039709  [I]     -0.039707  [I]     -0.039701  [I]     -0.035877  [I]
        -0.035875  [I]     -0.035873  [I]     -0.032528  [I]      0.012770  [I]
         0.012771  [I]      0.012772  [I]      0.031720  [I]      0.031724  [A]
         0.031725  [A]      0.070844  [A]      0.089509  [A]      0.089509  [A]

  Active Orbital Indices for spin  1
    24  25  26  27
    28

  Calculation of Electron Repulsion Integrals
  Integration method                             GPW Fourier transform over MOs
  ERI operator                                                   Coulomb <1/R>
  Accuracy of ERI                                                    0.1000E-11
  Periodicity                                                           1  1  1
  Total Number of ERI                                                        78

 ERI_GPW| Energy cutoff [Ry]                                               500.0
 ERI_GPW| Relative energy cutoff [Ry]                                       60.0
 ERI_GPW| Poisson Greens function                                       PERIODIC

 -------------------------------------------------------------------------------
 ----                             MULTIGRID INFO                            ----
 -------------------------------------------------------------------------------
 count for grid        1:              0          cutoff [a.u.]          250.00
 count for grid        2:          15680          cutoff [a.u.]           83.33
 count for grid        3:          17680          cutoff [a.u.]           27.78
 count for grid        4:           3680          cutoff [a.u.]            9.26
 count for grid        5:           1680          cutoff [a.u.]            3.09
 total gridlevel count  :          38720

 ERI_GPW| Spinmatrix: 1      Number of  CSR non-zero elements:              120
 ERI_GPW| Spinmatrix: 1      Percentage CSR non-zero elements:           0.0728
 ERI_GPW| Spinmatrix: 1      nrows_total                                    406
 ERI_GPW| Spinmatrix: 1      ncols_total                                    406
 ERI_GPW| Spinmatrix: 1      nrows_local                                      0

  @SERVER: Created socket with address embedding_socket
  @SERVER: Waiting for requests...
  @SERVER: Accepted socket with fd 25

  Iter    Update    Time         Corr. energy         Total energy        Change
  ------------------------------------------------------------------------------
     1    P_Mix     ****        -0.1028142571       -34.8319484877     -1.03E-01
     2    P_Mix     ****        -0.1158556894       -34.8449899200     -1.30E-02
     3    P_Mix     ****        -0.1158996724       -34.8450339029     -4.40E-05

  *** rsDFT embedding run converged in     3 iteration(s) ***

   FCIDUMP| Checksum:                                             35.82584505

 !-------------------- End of Active Space Interface --------------------------!

 ENERGY| Total FORCE_EVAL ( QS ) energy [a.u.]:              -34.845033902929835

 -------------------------------------------------------------------------------
 -                                                                             -
 -                                DBCSR STATISTICS                             -
 -                                                                             -
 -------------------------------------------------------------------------------
 COUNTER                                    TOTAL       BLAS       SMM       ACC
 flops    12 x    12 x    52               119808       0.0%    100.0%      0.0%     
 flops    12 x    32 x    52               319488       0.0%    100.0%      0.0%     
 flops    32 x    12 x    52               319488       0.0%    100.0%      0.0%     
 flops    32 x    32 x    52               851968       0.0%    100.0%      0.0%     
 flops    13 x    12 x    13              2076672       0.0%    100.0%      0.0%     
 flops    13 x    13 x    28              5148416       0.0%    100.0%      0.0%     
 flops    13 x    32 x    13              5537792       0.0%    100.0%      0.0%     
 flops    13 x    13 x    12             21513024       0.0%    100.0%      0.0%     
 flops    13 x    28 x    13             26650624       0.0%    100.0%      0.0%     
 flops    13 x    13 x    32             57368064       0.0%    100.0%      0.0%     
 flops inhomo. stacks                           0       0.0%      0.0%      0.0%
 flops total                       119.905344E+06       0.0%    100.0%      0.0%
 flops max/rank                     15.077712E+06       0.0%    100.0%      0.0%
 matmuls inhomo. stacks                         0       0.0%      0.0%      0.0%
 matmuls total                              15024       0.0%    100.0%      0.0%
 number of processed stacks                  1584       0.0%    100.0%      0.0%
 average stack size                                     0.0       9.5       0.0
 marketing flops                   129.499136E+06
 -------------------------------------------------------------------------------
 # multiplications                             74
 max memory usage/rank             426.057728E+06
 # max total images/rank                        1
 # max 3D layers                                1
 # MPI messages exchanged                    7104
 MPI messages size (bytes):
  total size                        38.691072E+06
  min size                           0.000000E+00
  max size                          21.632000E+03
  average size                       5.446378E+03
 MPI breakdown and total messages size (bytes):
             size <=      128                3972                        0
       128 < size <=     8192                1080                  5364480
      8192 < size <=    32768                2052                 33326592
     32768 < size <=   131072                   0                        0
    131072 < size <=  4194304                   0                        0
   4194304 < size <= 16777216                   0                        0
  16777216 < size                               0                        0
 -------------------------------------------------------------------------------
 -                                                                             -
 -                      DBCSR MESSAGE PASSING PERFORMANCE                      -
 -                                                                             -
 -------------------------------------------------------------------------------
 ROUTINE             CALLS      AVE VOLUME [Bytes]
 MP_Bcast               11                     12.
 MP_Allreduce          460                      9.
 MP_Alltoall          1615                   5856.
 MP_ISend             1138                   3009.
 MP_IRecv             1138                   1973.
 -------------------------------------------------------------------------------

 -------------------------------------------------------------------------------
 -                                                                             -
 -                                DBM STATISTICS                               -
 -                                                                             -
 -------------------------------------------------------------------------------
    M  x    N  x    K                                          COUNT     PERCENT
 -------------------------------------------------------------------------------

 -------------------------------------------------------------------------------
 -                                                                             -
 -                                GRID STATISTICS                              -
 -                                                                             -
 -------------------------------------------------------------------------------
 LP    KERNEL             BACKEND                              COUNT     PERCENT
 4     integrate general  CPU                                 282420      51.04%
 4     collocate general  CPU                                 269868      48.77%
 0     collocate general  CPU                                    512       0.09%
 2     collocate general  CPU                                    320       0.06%
 0     integrate general  CPU                                    256       0.05%
 -------------------------------------------------------------------------------

 MEMORY| Estimated peak process memory [MiB]                                 410

 -------------------------------------------------------------------------------
 ----                             MULTIGRID INFO                            ----
 -------------------------------------------------------------------------------
 count for grid        1:              0          cutoff [a.u.]          250.00
 count for grid        2:          15688          cutoff [a.u.]           83.33
 count for grid        3:          20216          cutoff [a.u.]           27.78
 count for grid        4:           3572          cutoff [a.u.]            9.26
 count for grid        5:            400          cutoff [a.u.]            3.09
 total gridlevel count  :          39876

 -------------------------------------------------------------------------------
 -                                                                             -
 -                         MESSAGE PASSING PERFORMANCE                         -
 -                                                                             -
 -------------------------------------------------------------------------------

 ROUTINE             CALLS      AVE VOLUME [Bytes]
 MP_Group               10
 MP_Bcast              181                1032856.
 MP_Allreduce         1274                    626.
 MP_Sync                71
 MP_Alltoall          1213                4087211.
 MP_SendRecv          2160                  13187.
 MP_ISendRecv         2025                  13187.
 MP_Wait              6930
 MP_comm_split          40
 MP_ISend             4152                 108565.
 MP_IRecv             4152                 108541.
 -------------------------------------------------------------------------------


 -------------------------------------------------------------------------------
 -                                                                             -
 -                           R E F E R E N C E S                               -
 -                                                                             -
 -------------------------------------------------------------------------------
 
 CP2K version 2024.2, the CP2K developers group (2024).
 CP2K is freely available from https://www.cp2k.org/ .
 
 T. D. Kuehne, M. Iannuzzi, M. Del Ben, V. V. Rybkin, P. Seewald, F. Stein, T. 
 Laino, R. Z. Khaliullin, O. Schuett, F. Schiffmann, D. Golze, J. Wilhelm, S. 
 Chulkov, M. H. Bani-Hashemian, V. Weber, U. Borstnik, M. Taillefumier, A. S. 
 Jakobovits, A. Lazzaro, H. Pabst, T. Mueller, R. Schade, M. Guidon, S. 
 Andermatt, N. Holmberg, G. K. Schenter, A. Hehn, A. Bussy, F. Belleflamme, G. 
 Tabacchi, A. Gloess, M. Lass, I. Bethune, C. J. Mundy, C. Plessl, M. Watkins, 
 J. VandeVondele, M. Krack, J. Hutter.
 J. Chem. Phys. 152, 194103 (2020).
 CP2K: An electronic structure and molecular dynamics software package - 
 Quickstep: Efficient and accurate electronic structure calculations.
 https://doi.org/10.1063/5.0007045

 O. Schuett, P. Messmer, J. Hutter, J. VandeVondele.
 Electronic Structure Calculations on Graphics Processing Units, 173-190 (2016).
 GPU-Accelerated Sparse Matrix-Matrix Multiplication for Linear Scaling Density 
 Functional Theory.
 https://doi.org/10.1002/9781118670712.ch8

 A. Heinecke, G. Henry, M. Hutchinson, H. Pabst.
 Proceedings of Intl. Supercomputing Conference, 981-991 (2016).
 LIBXSMM: Accelerating Small Matrix Multiplications by Runtime Code Generation.
 https://doi.org/10.1109/SC.2016.83

 J. Hutter, M. Iannuzzi, F. Schiffmann, J. VandeVondele.
 WIREs Comput Mol Sci. 4, 15-25 (2014).
 CP2K: atomistic simulations of condensed matter systems.
 https://doi.org/10.1002/wcms.1159

 U. Borstnik, J. VandeVondele, V. Weber, J. Hutter.
 Parallel Comput. 40, 47-58 (2014).
 Sparse matrix multiplication: The distributed block-compressed sparse row 
 library.
 https://doi.org/10.1016/j.parco.2014.03.012

 A. Marek, V. Blum, R. Johanni, V. Havu, B. Lang, T. Auckenthaler, A. Heinecke, 
 H. Bungartz, H. Lederer.
 J. Phys. Condens. Matter 26, 213201 (2014).
 The ELPA library: scalable parallel eigenvalue solutions for electronic 
 structure theory and computational science.
 https://doi.org/10.1088/0953-8984/26/21/213201

 J. VandeVondele, J. Hutter.
 J. Chem. Phys. 127, 114105 (2007).
 Gaussian basis sets for accurate calculations on molecular systems in gas and 
 condensed phases.
 https://doi.org/10.1063/1.2770708

 J. VandeVondele, M. Krack, F. Mohamed, M. Parrinello, T. Chassaing, J. Hutter.
 Comput. Phys. Commun. 167, 103-128 (2005).
 QUICKSTEP: Fast and accurate density functional calculations using a mixed 
 Gaussian and plane waves approach.
 https://doi.org/10.1016/j.cpc.2004.12.014

 M. Krack.
 Theor. Chem. Acc. 114, 145-152 (2005).
 Pseudopotentials for H to Kr optimized for gradient-corrected 
 exchange-correlation functionals.
 https://doi.org/10.1007/s00214-005-0655-y

 M. Frigo, S. G. Johnson.
 Proc. IEEE 93, 216-231 (2005).
 The design and implementation of FFTW3.
 https://doi.org/10.1109/JPROC.2004.840301

 J. VandeVondele, J. Hutter.
 J. Chem. Phys. 118, 4365-4369 (2003).
 An efficient orbital transformation method for electronic structure 
 calculations.
 https://doi.org/10.1063/1.1543154

 C. Hartwigsen, S. Goedecker, J. Hutter.
 Phys. Rev. B 58, 3641-3662 (1998).
 Relativistic separable dual-space Gaussian pseudopotentials from H to Rn.
 https://doi.org/10.1103/PhysRevB.58.3641

 G. Lippert, J. Hutter, M. Parrinello.
 Mol. Phys. 92, 477-487 (1997).
 A hybrid Gaussian and plane wave density functional scheme.
 https://doi.org/10.1080/002689797170220

 S. Goedecker, M. Teter, J. Hutter.
 Phys. Rev. B 54, 1703-1710 (1996).
 Separable dual-space Gaussian pseudopotentials.
 https://doi.org/10.1103/PhysRevB.54.1703

 J. P. Perdew, K. Burke, M. Ernzerhof.
 Phys. Rev. Lett. 77, 3865-3868 (1996).
 Generalized gradient approximation made simple.
 https://doi.org/10.1103/PhysRevLett.77.3865


 -------------------------------------------------------------------------------
 -                                                                             -
 -                                T I M I N G                                  -
 -                                                                             -
 -------------------------------------------------------------------------------
 SUBROUTINE                       CALLS  ASD         SELF TIME        TOTAL TIME
                                MAXIMUM       AVERAGE  MAXIMUM  AVERAGE  MAXIMUM
 CP2K                                 1  1.0    0.005    0.006 1185.345 1185.352
 qs_energies                          1  2.0    0.000    0.000 1185.288 1185.295
 active_space_main                    1  3.0    0.004    0.005 1178.521 1178.528
 rsdft_embedding                      1  4.0    0.008    0.008 1178.107 1178.114
 mp_bcast_av                        533  1.1    0.002    0.002 1103.903 1177.503
 mp_bcast_i                         287  2.2 1103.900 1177.501 1103.900 1177.501
 send_fock_to_client                  3  5.0    0.000    0.000 1177.490 1177.497
 readbuffer_s                         8  6.0   73.593 1177.492   73.593 1177.492
 -------------------------------------------------------------------------------

 The number of warnings for this run is : 41
 
 -------------------------------------------------------------------------------
  **** **** ******  **  PROGRAM ENDED AT                 2024-08-21 20:03:22.873
 ***** ** ***  *** **   PROGRAM RAN ON                              4e3c4a952958
 **    ****   ******    PROGRAM RAN BY                                 <unknown>
 ***** **    ** ** **   PROGRAM PROCESS ID                                   587
  **** **  *******  **  PROGRAM STOPPED IN                                  /mnt
