&FCI NORB=   5,NELEC=   2,MS2= 1,
  ORBSYM=1,1,1,1,1,
  ISYM=0,
 /
 7.9461823824701738E-02   1   1   1   1
-5.0410073980140888E-05   1   1   1   2
 2.2261112174439348E-04   1   1   1   3
 7.2875494007906827E-04   1   1   1   4
-4.6847599030308800E-04   1   1   1   5
 7.5822078670684356E-02   1   1   2   2
-2.3441971149804368E-05   1   1   2   3
-8.0657534720520732E-04   1   1   2   4
 8.9302709434735416E-04   1   1   2   5
 7.4728623517899218E-02   1   1   3   3
 8.8477903514738070E-04   1   1   3   4
 5.6444024092952756E-04   1   1   3   5
 6.9976667042534982E-02   1   1   4   4
 5.6970471208660830E-04   1   1   4   5
 7.0668563397298156E-02   1   1   5   5
 1.5518274521059989E-03   1   2   1   2
 4.6283359559553251E-05   1   2   1   3
-5.3967114716275006E-05   1   2   1   4
 1.0490819423155106E-04   1   2   1   5
-2.6262971058787620E-05   1   2   2   2
-1.4371935932446135E-04   1   2   2   3
-1.4951709713096871E-05   1   2   2   4
-2.2969068386840803E-04   1   2   2   5
 4.6869967976027845E-05   1   2   3   3
-1.1835844775176623E-04   1   2   3   4
-1.5754005694798679E-05   1   2   3   5
 1.3417146587680931E-04   1   2   4   4
 2.0988325171164236E-05   1   2   4   5
 1.1381816961906594E-05   1   2   5   5
 1.5284888586454195E-03   1   3   1   3
 3.3285514952811066E-04   1   3   1   4
-3.2425582444015814E-04   1   3   1   5
 4.6286431257978883E-04   1   3   2   2
-1.1199513029893997E-04   1   3   2   3
-2.5300872207822424E-04   1   3   2   4
 1.6039231469224343E-04   1   3   2   5
-1.1435445601575571E-04   1   3   3   3
 3.9733588909196559E-04   1   3   3   4
 3.4156115688699007E-05   1   3   3   5
-9.0354173030374028E-05   1   3   4   4
-7.6880993373424177E-05   1   3   4   5
 3.4572651254871741E-05   1   3   5   5
 1.4750600099257371E-03   1   4   1   4
-1.3229357901587189E-04   1   4   1   5
 9.7405560860909014E-04   1   4   2   2
-9.5205792686822006E-05   1   4   2   3
-8.6920710278384354E-05   1   4   2   4
 3.7094024729380755E-04   1   4   2   5
 1.6571201719901276E-04   1   4   3   3
 6.5479079106369256E-04   1   4   3   4
 7.6129772055029285E-05   1   4   3   5
-1.4458550552234919E-04   1   4   4   4
 1.3449812358098002E-04   1   4   4   5
 2.8659033560550409E-04   1   4   5   5
 1.5070118365811927E-03   1   5   1   5
-6.9578817159451347E-04   1   5   2   2
 1.7978878454775479E-04   1   5   2   3
 4.2261805303823031E-04   1   5   2   4
-2.6309389923431640E-04   1   5   2   5
 3.3472893296090453E-07   1   5   3   3
-3.6237399478225053E-04   1   5   3   4
-4.0055796000633770E-05   1   5   3   5
 1.4463188392234877E-04   1   5   4   4
-3.0978994061788478E-06   1   5   4   5
-1.3870942721910866E-04   1   5   5   5
 7.8804656668717776E-02   2   2   2   2
-1.5438281878247737E-04   2   2   2   3
-8.0385276856916954E-04   2   2   2   4
 9.7502249003762981E-04   2   2   2   5
 7.4856951744091543E-02   2   2   3   3
 1.0443935843466453E-03   2   2   3   4
 4.4438106164397095E-04   2   2   3   5
 7.0073354484430944E-02   2   2   4   4
 3.8020721091414837E-04   2   2   4   5
 7.0882878589019940E-02   2   2   5   5
 1.4545495739862846E-03   2   3   2   3
 5.4699048747934914E-05   2   3   2   4
 1.0512006459143766E-04   2   3   2   5
 5.7227909976138359E-05   2   3   3   3
-3.2507769962051533E-05   2   3   3   4
 7.0013809692163274E-05   2   3   3   5
 1.1685303242473643E-04   2   3   4   4
 5.8928194687674269E-05   2   3   4   5
 1.1121819332708536E-04   2   3   5   5
 1.3954477076064584E-03   2   4   2   4
-5.1235740626477883E-04   2   4   2   5
-3.6318335998776702E-04   2   4   3   3
-2.6787150369716480E-04   2   4   3   4
-5.2919418862824917E-05   2   4   3   5
-1.1829383493844382E-04   2   4   4   4
-4.9663792828016456E-05   2   4   4   5
-2.1421739968175560E-04   2   4   5   5
 1.8609461109708111E-03   2   5   2   5
 1.8301963387933886E-04   2   5   3   3
 3.4143092897739603E-04   2   5   3   4
 3.1323769906288766E-04   2   5   3   5
-1.0249119454510490E-04   2   5   4   4
 2.1016252373370239E-04   2   5   4   5
 3.8940070483613567E-04   2   5   5   5
 7.7473319885152866E-02   3   3   3   3
 1.2987526462033324E-04   3   3   3   4
 2.5694942979303642E-04   3   3   3   5
 7.0229312236326030E-02   3   3   4   4
 4.3006855651222885E-04   3   3   4   5
 7.0101034566754941E-02   3   3   5   5
 1.7540352386973645E-03   3   4   3   4
 3.1299265746477642E-04   3   4   3   5
 2.8395084356393034E-05   3   4   4   4
 1.3419899693052075E-04   3   4   4   5
 5.9168902408142593E-04   3   4   5   5
 1.2794072790615711E-03   3   5   3   5
-5.2302853321888304E-05   3   5   4   4
 1.5235435174460238E-04   3   5   4   5
 1.6981134149162772E-04   3   5   5   5
 6.9913798528553756E-02   4   4   4   4
 5.9201055389841294E-04   4   4   4   5
 6.7227341342479319E-02   4   4   5   5
 1.2623692506524449E-03   4   5   4   5
 5.7603955432223772E-04   4   5   5   5
 7.0351725318376426E-02   5   5   5   5
-1.3545946161278646E-01   1   1   0   0
 7.5187983327242806E-04   1   2   0   0
 2.7323970355794811E-04   1   3   0   0
-2.6962243358152590E-04   1   4   0   0
 2.5223967700795207E-03   1   5   0   0
-1.3432612467520905E-01   2   2   0   0
-8.9248385013909705E-04   2   3   0   0
 2.1040023331686838E-03   2   4   0   0
 1.7479979461645203E-03   2   5   0   0
-1.3658612678519791E-01   3   3   0   0
-2.9524093221043428E-04   3   4   0   0
-3.0374977332317341E-03   3   5   0   0
-1.2394896272708369E-01   4   4   0   0
-1.9176375699528343E-03   4   5   0   0
-1.2333544040784925E-01   5   5   0   0
-2.4127192097444632E+02   0   0   0   0
