100
Lattice="14.214417773577495 4.3554225090800426e-08 -8.21193514845441e-09 7.107208924507805 12.310046883323555 2.0191884062831775e-08 -1.5481876425441577e-08 5.3611856654733814e-08 26.97123332931765" Properties=species:S:1:pos:R:3:initial_magmoms:R:1:forces:R:3:magmoms:R:1 energy=-358.3445072174072 free_energy=-358.3445072174072 stress="0.0018820782424882054 1.7375660021912154e-08 -2.479991323411923e-09 1.7774231864109424e-08 0.0018820726545527577 -9.985770432763275e-09 -2.557662748259304e-09 -1.0262967364838005e-08 -0.000935989897698164" pbc="T T T"
Al      -0.00000001       0.00000002       9.98387090       0.00517976      -0.00001500       0.00000393      -0.00014548       0.00517976
Al       2.84288355       0.00000003       9.98387090       0.00518000       0.00000913      -0.00003640      -0.00014208       0.00518000
Al       5.68576710       0.00000004       9.98387090       0.00517952      -0.00000240      -0.00001410      -0.00013100       0.00517952
Al       8.52865066       0.00000005       9.98387090       0.00517976      -0.00001306      -0.00000516      -0.00013322       0.00517976
Al      11.37153421       0.00000005       9.98387090       0.00517988       0.00000806      -0.00002162      -0.00013304       0.00517988
Al       1.42144178       2.46200940       9.98387091       0.00517964      -0.00001502       0.00002105      -0.00015314       0.00517964
Al       4.26432533       2.46200941       9.98387091       0.00517964       0.00001893       0.00001021      -0.00014405       0.00517964
Al       7.10720889       2.46200941       9.98387090       0.00518000       0.00000789       0.00000733      -0.00014386       0.00518000
Al       9.95009244       2.46200942       9.98387090       0.00517929      -0.00000514       0.00001577      -0.00013868       0.00517929
Al      12.79297600       2.46200943       9.98387090       0.00517964       0.00001383       0.00002552      -0.00013821       0.00517964
Al       2.84288356       4.92401877       9.98387091       0.00517988      -0.00000245       0.00002444      -0.00014734       0.00517988
Al       5.68576712       4.92401878       9.98387091       0.00517952      -0.00000161       0.00000200      -0.00014545       0.00517952
Al       8.52865067       4.92401879       9.98387091       0.00518000      -0.00001443       0.00000371      -0.00014694       0.00518000
Al      11.37153423       4.92401880       9.98387091       0.00518012      -0.00000039       0.00000406      -0.00014453       0.00518012
Al      14.21441778       4.92401881       9.98387090       0.00517976       0.00000519      -0.00002695      -0.00014104       0.00517976
Al       4.26432535       7.38602815       9.98387092       0.00517988      -0.00000473      -0.00001199      -0.00013689       0.00517988
Al       7.10720890       7.38602816       9.98387091       0.00517964       0.00000308      -0.00001885      -0.00014380       0.00517964
Al       9.95009246       7.38602817       9.98387091       0.00517964      -0.00002272      -0.00002161      -0.00014392       0.00517964
Al      12.79297601       7.38602818       9.98387091       0.00517988       0.00000885      -0.00002227      -0.00014619       0.00517988
Al      15.63585957       7.38602818       9.98387091       0.00517988       0.00001849       0.00000347      -0.00013675       0.00517988
Al       5.68576713       9.84803753       9.98387092       0.00517976      -0.00001461       0.00000721      -0.00013901       0.00517976
Al       8.52865069       9.84803754       9.98387092       0.00517976       0.00001652       0.00001210      -0.00014118       0.00517976
Al      11.37153424       9.84803754       9.98387092       0.00517976      -0.00000475       0.00003984      -0.00013143       0.00517976
Al      14.21441780       9.84803755       9.98387091       0.00517964       0.00001137       0.00001274      -0.00013028       0.00517964
Al      17.05730135       9.84803756       9.98387091       0.00517952      -0.00000441      -0.00001216      -0.00012719       0.00517952
Al       1.42144177       0.82066982      12.31836808       0.01875889      -0.00000668      -0.00001072      -0.03753236       0.01875889
Al       4.26432533       0.82066983      12.31836808       0.01875901       0.00000366       0.00000148      -0.03755579       0.01875901
Al       7.10720888       0.82066984      12.31836808       0.01875865       0.00000514       0.00000229      -0.03755647       0.01875865
Al       9.95009244       0.82066985      12.31836807       0.01875854      -0.00000768       0.00000151      -0.03755678       0.01875854
Al      12.79297599       0.82066985      12.31836807       0.01875842       0.00000507      -0.00001003      -0.03754379       0.01875842
Al       2.84288356       3.28267920      12.31836808       0.01875854       0.00000914       0.00000800      -0.03753106       0.01875854
Al       5.68576711       3.28267920      12.31836808       0.01875877      -0.00000463      -0.00000729      -0.03754568       0.01875877
Al       8.52865067       3.28267921      12.31836808       0.01875865       0.00000206      -0.00000744      -0.03754526       0.01875865
Al      11.37153422       3.28267922      12.31836808       0.01875865       0.00001171       0.00000089      -0.03754827       0.01875865
Al      14.21441778       3.28267923      12.31836808       0.01875865      -0.00000586       0.00000256      -0.03753990       0.01875865
Al       4.26432534       5.74468857      12.31836809       0.01875865      -0.00000583       0.00000717      -0.03754783       0.01875865
Al       7.10720890       5.74468858      12.31836808       0.01875854       0.00000286       0.00000641      -0.03752676       0.01875854
Al       9.95009245       5.74468859      12.31836808       0.01875865       0.00000292       0.00000812      -0.03754586       0.01875865
Al      12.79297601       5.74468860      12.31836808       0.01875865      -0.00000545       0.00000034      -0.03755732       0.01875865
Al      15.63585956       5.74468861      12.31836808       0.01875865       0.00000253      -0.00000167      -0.03755002       0.01875865
Al       5.68576713       8.20669795      12.31836809       0.01875889      -0.00000634      -0.00000364      -0.03754427       0.01875889
Al       8.52865068       8.20669796      12.31836809       0.01875865       0.00000373      -0.00000110      -0.03754278       0.01875865
Al      11.37153424       8.20669797      12.31836809       0.01875865       0.00000138      -0.00000764      -0.03753337       0.01875865
Al      14.21441779       8.20669798      12.31836809       0.01875854       0.00000512       0.00000435      -0.03753853       0.01875854
Al      17.05730135       8.20669798      12.31836808       0.01875877      -0.00000232      -0.00000036      -0.03756612       0.01875877
Al       7.10720891      10.66870733      12.31836809       0.01875889       0.00000194       0.00001411      -0.03755156       0.01875889
Al       9.95009247      10.66870733      12.31836809       0.01875865       0.00000744      -0.00000021      -0.03756430       0.01875865
Al      12.79297602      10.66870734      12.31836809       0.01875865      -0.00000127       0.00000551      -0.03757548       0.01875865
Al      15.63585958      10.66870735      12.31836809       0.01875842      -0.00000047      -0.00000288      -0.03755964       0.01875842
Al      18.47874313      10.66870736      12.31836809       0.01875854       0.00000195      -0.00000329      -0.03756835       0.01875854
Al      -0.00000156       1.64133919      14.62696323       0.01873994      -0.00000397      -0.00002105      -0.00084952       0.01873994
Al       2.84288297       1.64133946      14.62696118       0.01874018       0.00000757       0.00000496      -0.00082759       0.01874018
Al       5.68576780       1.64133816      14.62695931       0.01874006      -0.00000925       0.00000020      -0.00082416       0.01874006
Al       8.52865063       1.64134008      14.62696350       0.01873994      -0.00000796      -0.00000228      -0.00084890       0.01873994
Al      11.37153165       1.64133926      14.62695993       0.01874030       0.00000717       0.00000185      -0.00080296       0.01874030
Al       1.42144042       4.10334721      14.62696478       0.01873982       0.00000758       0.00000705      -0.00083006       0.01873982
Al       4.26432622       4.10335334      14.62696214       0.01874018      -0.00000671      -0.00002030      -0.00085350       0.01874018
Al       7.10720718       4.10334691      14.62695988       0.01874006      -0.00000373       0.00000672      -0.00083347       0.01874006
Al       9.95008992       4.10334732      14.62695835       0.01874018       0.00000681      -0.00000271      -0.00083961       0.01874018
Al      12.79298058       4.10334982      14.62696627       0.01874018      -0.00002427       0.00000069      -0.00086793       0.01874018
Al       2.84288315       6.56535709      14.62696257       0.01874030      -0.00000330      -0.00000226      -0.00083104       0.01874030
Al       5.68576833       6.56536093      14.62696457       0.01874018      -0.00000434      -0.00000978      -0.00084610       0.01874018
Al       8.52865162       6.56535878      14.62696002       0.01873994      -0.00000961       0.00000134      -0.00082870       0.01873994
Al      11.37153233       6.56535568      14.62695872       0.01874018       0.00000374      -0.00000051      -0.00083005       0.01874018
Al      14.21441782       6.56535479      14.62695874       0.01874018       0.00001074       0.00001742      -0.00081193       0.01874018
Al       4.26432751       9.02736493      14.62696077       0.01874018      -0.00001394       0.00001006      -0.00080635       0.01874018
Al       7.10720657       9.02736626      14.62696026       0.01874006       0.00002785      -0.00000170      -0.00085300       0.01874006
Al       9.95009593       9.02736879      14.62696074       0.01874018      -0.00003561       0.00000927      -0.00082182       0.01874018
Al      12.79297029       9.02736862      14.62695868       0.01873982       0.00002846      -0.00000770      -0.00081903       0.01873982
Al      15.63586020       9.02737048      14.62696351       0.01874018      -0.00000904      -0.00000225      -0.00086245       0.01874018
Al       5.68576594      11.48937261      14.62695875       0.01873994      -0.00000002       0.00001982      -0.00081499       0.01873994
Al       8.52865416      11.48938087      14.62695994       0.01874006       0.00000276      -0.00002347      -0.00082552       0.01874006
Al      11.37153452      11.48937828      14.62695949       0.01874030      -0.00000387       0.00000014      -0.00082440       0.01874030
Al      14.21442114      11.48937421      14.62696373       0.01874006      -0.00001609      -0.00000452      -0.00084264       0.01874006
Al      17.05730333      11.48938081      14.62696236       0.01874006       0.00000313      -0.00002161      -0.00082652       0.01874006
Al       0.00000521       0.00000063      16.94657865       0.00534701      -0.00002793       0.00003534       0.03851481       0.00534701
Al       2.84288765       0.00000452      16.94658040       0.00534689      -0.00001442      -0.00001075       0.03852220       0.00534689
Al       5.68577009       0.00000152      16.94658208       0.00534701      -0.00001731       0.00000592       0.03852580       0.00534701
Al       8.52864882      -0.00001054      16.94658073       0.00534713       0.00000853       0.00004583       0.03852626       0.00534713
Al      11.37153327      -0.00000633      16.94658304       0.00534689       0.00001855       0.00003878       0.03851918       0.00534689
Al       1.42143779       2.46200980      16.94658407       0.00534689       0.00002806       0.00000600       0.03852362       0.00534689
Al       4.26431743       2.46201537      16.94658384       0.00534678       0.00001927      -0.00004100       0.03852521       0.00534678
Al       7.10721082       2.46201013      16.94658308       0.00534666       0.00000984       0.00000541       0.03852698       0.00534666
Al       9.95009227       2.46201589      16.94658431       0.00534654       0.00004193      -0.00003738       0.03851531       0.00534654
Al      12.79298215       2.46201479      16.94657986       0.00534701      -0.00005006      -0.00006206       0.03852970       0.00534701
Al       2.84288926       4.92401475      16.94658268       0.00534701      -0.00007559       0.00000515       0.03851909       0.00534701
Al       5.68576364       4.92401543      16.94658334       0.00534678       0.00005666       0.00001182       0.03852447       0.00534678
Al       8.52865908       4.92401520      16.94658223       0.00534701      -0.00005906       0.00004789       0.03852338       0.00534701
Al      11.37153376       4.92402086      16.94658274       0.00534689      -0.00000571       0.00000139       0.03852760       0.00534689
Al      14.21441113       4.92402146      16.94658346       0.00534713       0.00006809       0.00004496       0.03852945       0.00534713
Al       4.26432106       7.38602406      16.94658189       0.00534713       0.00001762       0.00006328       0.03852380       0.00534713
Al       7.10719956       7.38602924      16.94658118       0.00534701       0.00005277      -0.00006557       0.03852604       0.00534701
Al       9.95010064       7.38603194      16.94658239       0.00534701      -0.00003034      -0.00003066       0.03853030       0.00534701
Al      12.79297901       7.38602370      16.94658289       0.00534701       0.00000566       0.00002248       0.03850862       0.00534701
Al      15.63586350       7.38603242      16.94658260       0.00534701      -0.00005028      -0.00008232       0.03852271       0.00534701
Al       5.68577804       9.84804161      16.94658285       0.00534713      -0.00011113      -0.00001744       0.03852403       0.00534713
Al       8.52864258       9.84803512      16.94658869       0.00534701       0.00008788       0.00002354       0.03849844       0.00534701
Al      11.37153427       9.84803293      16.94658347       0.00534689       0.00001076       0.00002950       0.03852403       0.00534689
Al      14.21442607       9.84804142      16.94658017       0.00534666      -0.00006276      -0.00003375       0.03852694       0.00534666
Al      17.05728615       9.84803515      16.94658168       0.00534713       0.00010427       0.00002539       0.03851684       0.00534713
