 DBCSR| CPU Multiplication driver                                           XSMM (U)
 DBCSR| Multrec recursion limit                                              512 (U)
 DBCSR| Multiplication stack size                                           1000 (D)
 DBCSR| Maximum elements for images                                    UNLIMITED (U)
 DBCSR| Multiplicative factor virtual images                                   1 (U)
 DBCSR| Use multiplication densification                                       T (D)
 DBCSR| Multiplication size stacks                                             3 (U)
 DBCSR| Use memory pool for CPU allocation                                     F (U)
 DBCSR| Number of 3D layers                                               SINGLE (U)
 DBCSR| Use MPI memory allocation                                              F (U)
 DBCSR| Use RMA algorithm                                                      F (U)
 DBCSR| Use Communication thread                                               T (U)
 DBCSR| Communication thread load                                             83 (D)
 DBCSR| MPI: My process id                                                     0
 DBCSR| MPI: Number of processes                                              64
 DBCSR| OMP: Current number of threads                                         2
 DBCSR| OMP: Max number of threads                                             2
 DBCSR| Split modifier for TAS multiplication algorithm                  1.0E+00 (U)


  **** **** ******  **  PROGRAM STARTED AT               2023-12-08 15:12:38.981
 ***** ** ***  *** **   PROGRAM STARTED ON                               tcopt13
 **    ****   ******    PROGRAM STARTED BY                              stefabat
 ***** **    ** ** **   PROGRAM PROCESS ID                                247737
  **** **  *******  **  PROGRAM STARTED IN              /data/stefabat/tmp/MgO_0

 CP2K| version string:                 CP2K version 2023.2 (Development Version)
 CP2K| source code revision number:                                  git:7176684
 CP2K| cp2kflags: omp libint fftw3 libxc parallel mpi_f08 scalapack xsmm spglib 
 CP2K|            hdf5
 CP2K| is freely available from                            https://www.cp2k.org/
 CP2K| Program compiled at                       Fri 08 Dec 2023 12:36:50 PM CET
 CP2K| Program compiled on                                               tcopt13
 CP2K| Program compiled for                                                local
 CP2K| Data directory path                          /data/stefabat/opt/cp2k/data
 CP2K| Input file name                                                   MgO.inp

 GLOBAL| Force Environment number                                              1
 GLOBAL| Basis set file name                                     BASIS_ccGRB_UZH
 GLOBAL| Potential file name                                       POTENTIAL_UZH
 GLOBAL| MM Potential file name                                     MM_POTENTIAL
 GLOBAL| Coordinate file name                                            MgO.xyz
 GLOBAL| Method name                                                        CP2K
 GLOBAL| Project name                                                        MgO
 GLOBAL| Run type                                                         ENERGY
 GLOBAL| FFT library                                                       FFTW3
 GLOBAL| Diagonalization library                                       ScaLAPACK
 GLOBAL| DGEMM library                                                      BLAS
 GLOBAL| Orthonormality check for eigenvectors                          DISABLED
 GLOBAL| Matrix multiplication library                                 ScaLAPACK
 GLOBAL| All-to-all communication in single precision                          F
 GLOBAL| FFTs using library dependent lengths                                  F
 GLOBAL| Grid backend                                                       AUTO
 GLOBAL| Global print level                                               MEDIUM
 GLOBAL| MPI I/O enabled                                                       T
 GLOBAL| Total number of message passing processes                            64
 GLOBAL| Number of threads for this process                                    2
 GLOBAL| This output is from process                                           0
 GLOBAL| Stack size for threads created by OpenMP (OMP_STACKSIZE)        default
 GLOBAL| CPU model name                          AMD EPYC 7742 64-Core Processor
 GLOBAL| CPUID                                                              1002
 GLOBAL| Compiled for CPUID                                                    0

 *** HINT in environment.F:904 :: The compiler target flags (generic) used ***
 *** to build this binary cannot exploit all extensions of this CPU model  ***
 *** (x86_avx2). Consider compiler target flags as part of FCFLAGS and     ***
 *** CFLAGS (ARCH file).                                                   ***


 MEMORY| system memory details [Kb]
 MEMORY|                        rank 0           min           max       average
 MEMORY| MemTotal           1056543508    1056543508    1056543508    1056543508
 MEMORY| MemFree            1024642276    1024642276    1024642276    1024642276
 MEMORY| Buffers                  1784          1784          1784          1784
 MEMORY| Cached               18382876      18382876      18382876      18382876
 MEMORY| Slab                  2210576       2210576       2210576       2210576
 MEMORY| SReclaimable           852552        852552        852552        852552
 MEMORY| MemLikelyFree      1043879488    1043879488    1043879488    1043879488


 *** Fundamental physical constants (SI units) ***

 *** Literature: B. J. Mohr and B. N. Taylor,
 ***             CODATA recommended values of the fundamental physical
 ***             constants: 2006, Web Version 5.1
 ***             http://physics.nist.gov/constants

 Speed of light in vacuum [m/s]                             2.99792458000000E+08
 Magnetic constant or permeability of vacuum [N/A**2]       1.25663706143592E-06
 Electric constant or permittivity of vacuum [F/m]          8.85418781762039E-12
 Planck constant (h) [J*s]                                  6.62606896000000E-34
 Planck constant (h-bar) [J*s]                              1.05457162825177E-34
 Elementary charge [C]                                      1.60217648700000E-19
 Electron mass [kg]                                         9.10938215000000E-31
 Electron g factor [ ]                                     -2.00231930436220E+00
 Proton mass [kg]                                           1.67262163700000E-27
 Fine-structure constant                                    7.29735253760000E-03
 Rydberg constant [1/m]                                     1.09737315685270E+07
 Avogadro constant [1/mol]                                  6.02214179000000E+23
 Boltzmann constant [J/K]                                   1.38065040000000E-23
 Atomic mass unit [kg]                                      1.66053878200000E-27
 Bohr radius [m]                                            5.29177208590000E-11

 *** Conversion factors ***

 [u] -> [a.u.]                                              1.82288848426455E+03
 [Angstrom] -> [Bohr] = [a.u.]                              1.88972613288564E+00
 [a.u.] = [Bohr] -> [Angstrom]                              5.29177208590000E-01
 [a.u.] -> [s]                                              2.41888432650478E-17
 [a.u.] -> [fs]                                             2.41888432650478E-02
 [a.u.] -> [J]                                              4.35974393937059E-18
 [a.u.] -> [N]                                              8.23872205491840E-08
 [a.u.] -> [K]                                              3.15774647902944E+05
 [a.u.] -> [kJ/mol]                                         2.62549961709828E+03
 [a.u.] -> [kcal/mol]                                       6.27509468713739E+02
 [a.u.] -> [Pa]                                             2.94210107994716E+13
 [a.u.] -> [bar]                                            2.94210107994716E+08
 [a.u.] -> [atm]                                            2.90362800883016E+08
 [a.u.] -> [eV]                                             2.72113838565563E+01
 [a.u.] -> [Hz]                                             6.57968392072181E+15
 [a.u.] -> [1/cm] (wave numbers)                            2.19474631370540E+05
 [a.u./Bohr**2] -> [1/cm]                                   5.14048714338585E+03
 

 CELL_TOP| Volume [angstrom^3]:                                       624.599700
 CELL_TOP| Vector a [angstrom     8.548     0.000     0.000   |a| =     8.548054
 CELL_TOP| Vector b [angstrom     0.000     8.548     0.000   |b| =     8.548054
 CELL_TOP| Vector c [angstrom     0.000     0.000     8.548   |c| =     8.548054
 CELL_TOP| Angle (b,c), alpha [degree]:                                90.000000
 CELL_TOP| Angle (a,c), beta  [degree]:                                90.000000
 CELL_TOP| Angle (a,b), gamma [degree]:                                90.000000
 CELL_TOP| Numerically orthorhombic:                                         YES
 CELL_TOP| Periodicity                                                       XYZ

 GENERATE|  Preliminary Number of Bonds generated:                             0
 GENERATE|  Achieved consistency in connectivity generation.

 CELL| Volume [angstrom^3]:                                           624.599700
 CELL| Vector a [angstrom]:       8.548     0.000     0.000   |a| =     8.548054
 CELL| Vector b [angstrom]:       0.000     8.548     0.000   |b| =     8.548054
 CELL| Vector c [angstrom]:       0.000     0.000     8.548   |c| =     8.548054
 CELL| Angle (b,c), alpha [degree]:                                    90.000000
 CELL| Angle (a,c), beta  [degree]:                                    90.000000
 CELL| Angle (a,b), gamma [degree]:                                    90.000000
 CELL| Numerically orthorhombic:                                             YES
 CELL| Periodicity                                                           XYZ

 CELL_REF| Volume [angstrom^3]:                                       624.599700
 CELL_REF| Vector a [angstrom     8.548     0.000     0.000   |a| =     8.548054
 CELL_REF| Vector b [angstrom     0.000     8.548     0.000   |b| =     8.548054
 CELL_REF| Vector c [angstrom     0.000     0.000     8.548   |c| =     8.548054
 CELL_REF| Angle (b,c), alpha [degree]:                                90.000000
 CELL_REF| Angle (a,c), beta  [degree]:                                90.000000
 CELL_REF| Angle (a,b), gamma [degree]:                                90.000000
 CELL_REF| Numerically orthorhombic:                                         YES
 CELL_REF| Periodicity                                                       XYZ

 *******************************************************************************
 *******************************************************************************
 **                                                                           **
 **     #####                         ##              ##                      **
 **    ##   ##            ##          ##              ##                      **
 **   ##     ##                       ##            ######                    **
 **   ##     ##  ##   ##  ##   #####  ##  ##   ####   ##    #####    #####    **
 **   ##     ##  ##   ##  ##  ##      ## ##   ##      ##   ##   ##  ##   ##   **
 **   ##  ## ##  ##   ##  ##  ##      ####     ###    ##   ######   ######    **
 **    ##  ###   ##   ##  ##  ##      ## ##      ##   ##   ##       ##        **
 **     #######   #####   ##   #####  ##  ##  ####    ##    #####   ##        **
 **           ##                                                    ##        **
 **                                                                           **
 **                                                ... make the atoms dance   **
 **                                                                           **
 **            Copyright (C) by CP2K developers group (2000-2023)             **
 **                      J. Chem. Phys. 152, 194103 (2020)                    **
 **                                                                           **
 *******************************************************************************

 DFT| Spin restricted Kohn-Sham (RKS) calculation                            RKS
 DFT| Multiplicity                                                             1
 DFT| Number of spin states                                                    1
 DFT| Charge                                                                   0
 DFT| Self-interaction correction (SIC)                                       NO
 DFT| Cutoffs: density                                              1.000000E-10
 DFT|          gradient                                             1.000000E-10
 DFT|          tau                                                  1.000000E-10
 DFT|          cutoff_smoothing_range                               0.000000E+00
 DFT| XC density smoothing                                                  NONE
 DFT| XC derivatives                                                          PW

 FUNCTIONAL| LDA_C_PW:
 FUNCTIONAL| [1] J. P. Perdew and Y. Wang.,  Phys. Rev. B 45, 13244 (1992), doi:
 FUNCTIONAL|  10.1103/PhysRevB.45.13244                                         
 FUNCTIONAL| Optional external parameters:                                      
 FUNCTIONAL|  * pp0                                                             
 FUNCTIONAL|  * pp1                                                             
 FUNCTIONAL|  * pp2                                                             
 FUNCTIONAL|  * a0                                                              
 FUNCTIONAL|  * a1                                                              
 FUNCTIONAL|  * a2                                                              
 FUNCTIONAL|  * alpha10                                                         
 FUNCTIONAL|  * alpha11                                                         
 FUNCTIONAL|  * alpha12                                                         
 FUNCTIONAL|  * beta10                                                          
 FUNCTIONAL|  * beta11                                                          
 FUNCTIONAL|  * beta12                                                          
 FUNCTIONAL|  * beta20                                                          
 FUNCTIONAL|  * beta21                                                          
 FUNCTIONAL|  * beta22                                                          
 FUNCTIONAL|  * beta30                                                          
 FUNCTIONAL|  * beta31                                                          
 FUNCTIONAL|  * beta32                                                          
 FUNCTIONAL|  * beta40                                                          
 FUNCTIONAL|  * beta41                                                          
 FUNCTIONAL|  * beta42                                                          
 FUNCTIONAL|  * fz20                                                            
 FUNCTIONAL| {scale=1.000, spin-unpolarized}                                    
 FUNCTIONAL| LDA_X_ERF:
 FUNCTIONAL| [1] P. M. W. Gill, R. D. Adamson, and J. A. Pople.,  Mol. Phys. 88,
 FUNCTIONAL|  1005-1009 (1996), doi: 10.1080/00268979609484488                  
 FUNCTIONAL| Optional external parameters:                                      
 FUNCTIONAL|  * screening parameter                                             
 FUNCTIONAL| {scale=1.000, spin-unpolarized}                                    
 FUNCTIONAL| LDA_C_PMGB06:
 FUNCTIONAL| [1] S. Paziani, S. Moroni, P. Gori-Giorgi, and G. B. Bachelet.,  Ph
 FUNCTIONAL| ys. Rev. B 73, 155111 (2006), doi: 10.1103/PhysRevB.73.155111      
 FUNCTIONAL| Optional external parameters:                                      
 FUNCTIONAL|  * screening parameter                                             
 FUNCTIONAL| {scale=*****, spin-unpolarized}                                    


 QS| Method:                                                                 GPW
 QS| Density plane wave grid type                        NON-SPHERICAL FULLSPACE
 QS| Number of grid levels:                                                    4
 QS| Density cutoff [a.u.]:                                                500.0
 QS| Multi grid cutoff [a.u.]: 1) grid level                               500.0
 QS|                           2) grid level                               166.7
 QS|                           3) grid level                                55.6
 QS|                           4) grid level                                18.5
 QS| Grid level progression factor:                                          3.0
 QS| Relative density cutoff [a.u.]:                                        25.0
 QS| Interaction thresholds: eps_pgf_orb:                                1.0E-05
 QS|                         eps_filter_matrix:                          0.0E+00
 QS|                         eps_core_charge:                            1.0E-12
 QS|                         eps_rho_gspace:                             1.0E-10
 QS|                         eps_rho_rspace:                             1.0E-10
 QS|                         eps_gvg_rspace:                             1.0E-05
 QS|                         eps_ppl:                                    1.0E-02
 QS|                         eps_ppnl:                                   1.0E-07


 ATOMIC KIND INFORMATION

  1. Atomic kind: Mg                                    Number of atoms:      26

     Orbital Basis Set                                               ccgrb-d-q10

       Number of orbital shell sets:                                           2
       Number of orbital shells:                                               6
       Number of primitive Cartesian functions:                                7
       Number of Cartesian basis functions:                                   15
       Number of spherical basis functions:                                   14
       Norm type:                                                              2

       Normalised Cartesian orbitals:

                        Set   Shell   Orbital            Exponent    Coefficient

                          1       1    1s               22.432196       1.030485
                                                         7.209623       0.131236
                                                         2.317145      -0.888700
                                                         0.744722      -0.261683
                                                         0.239351      -0.000568
                                                         0.076926      -0.000500

                          1       2    2s               22.432196       0.232640
                                                         7.209623       0.035974
                                                         2.317145      -0.261965
                                                         0.744722      -0.136498
                                                         0.239351       0.016613
                                                         0.076926       0.107322

                          1       3    3s               22.432196      -0.406969
                                                         7.209623       0.066619
                                                         2.317145       0.206544
                                                         0.744722       0.607738
                                                         0.239351      -0.638700
                                                         0.076926       0.165275

                          1       4    2px              22.432196       6.704829
                                                         7.209623       5.044682
                                                         2.317145       2.029176
                                                         0.744722       0.309178
                                                         0.239351       0.006437
                                                         0.076926       0.000081
                          1       4    2py              22.432196       6.704829
                                                         7.209623       5.044682
                                                         2.317145       2.029176
                                                         0.744722       0.309178
                                                         0.239351       0.006437
                                                         0.076926       0.000081
                          1       4    2pz              22.432196       6.704829
                                                         7.209623       5.044682
                                                         2.317145       2.029176
                                                         0.744722       0.309178
                                                         0.239351       0.006437
                                                         0.076926       0.000081

                          1       5    3px              22.432196      -2.708826
                                                         7.209623      -2.472946
                                                         2.317145      -0.667721
                                                         0.744722      -0.160983
                                                         0.239351       0.239345
                                                         0.076926       0.006565
                          1       5    3py              22.432196      -2.708826
                                                         7.209623      -2.472946
                                                         2.317145      -0.667721
                                                         0.744722      -0.160983
                                                         0.239351       0.239345
                                                         0.076926       0.006565
                          1       5    3pz              22.432196      -2.708826
                                                         7.209623      -2.472946
                                                         2.317145      -0.667721
                                                         0.744722      -0.160983
                                                         0.239351       0.239345
                                                         0.076926       0.006565

                          2       1    1dx2              0.193200       0.092666
                          2       1    1dxy              0.193200       0.160503
                          2       1    1dxz              0.193200       0.160503
                          2       1    1dy2              0.193200       0.092666
                          2       1    1dyz              0.193200       0.160503
                          2       1    1dz2              0.193200       0.092666

       Atomic covalent radius [Angstrom]:                                  1.360

       Atomic van der Waals radius [Angstrom]:                             1.730

     GTH Potential information for                                   gth-hyb-q10

       Description:                       Goedecker-Teter-Hutter pseudopotential
                                           Goedecker et al., PRB 54, 1703 (1996)
                                          Hartwigsen et al., PRB 58, 3641 (1998)
                                                      Krack, TCA 114, 145 (2005)

       Gaussian exponent of the core charge distribution:              13.631610
       Electronic configuration (s p d ...):                       4   6   0   0

       Parameters of the local part of the GTH pseudopotential:

                          rloc        C1          C2          C3          C4
                        0.191519  -20.589965    3.054227    0.010372

       Parameters of the non-local part of the GTH pseudopotential:

                   l      r(l)      h(i,j,l)

                   0    0.141181   41.046492
                   1    0.103444  -10.149942

  2. Atomic kind: Mg1                                   Number of atoms:       6

     Orbital Basis Set                                               ccgrb-t-q10

       Number of orbital shell sets:                                           3
       Number of orbital shells:                                              10
       Number of primitive Cartesian functions:                               10
       Number of Cartesian basis functions:                                   35
       Number of spherical basis functions:                                   30
       Norm type:                                                              2

       Normalised Cartesian orbitals:

                        Set   Shell   Orbital            Exponent    Coefficient

                          1       1    1s               26.086483       0.786005
                                                         9.572948       0.547428
                                                         3.512981      -0.717160
                                                         1.289157      -0.529413
                                                         0.473082      -0.075234
                                                         0.173607       0.002199
                                                         0.063708      -0.000339

                          1       2    2s               26.086483       0.174260
                                                         9.572948       0.131476
                                                         3.512981      -0.189144
                                                         1.289157      -0.190827
                                                         0.473082      -0.064854
                                                         0.173607       0.056194
                                                         0.063708       0.077709

                          1       3    3s               26.086483      -0.560879
                                                         9.572948       0.053954
                                                         3.512981      -0.145021
                                                         1.289157       1.445893
                                                         0.473082      -0.844292
                                                         0.173607      -0.032976
                                                         0.063708       0.075914

                          1       4    4s               26.086483       0.437833
                                                         9.572948      -0.449164
                                                         3.512981       0.763677
                                                         1.289157      -1.766174
                                                         0.473082       1.709969
                                                         0.173607      -0.856532
                                                         0.063708       0.191230

                          1       5    2px              26.086483      -5.643712
                                                         9.572948      -5.089545
                                                         3.512981      -2.722989
                                                         1.289157      -0.796601
                                                         0.473082      -0.081836
                                                         0.173607      -0.000922
                                                         0.063708      -0.000031
                          1       5    2py              26.086483      -5.643712
                                                         9.572948      -5.089545
                                                         3.512981      -2.722989
                                                         1.289157      -0.796601
                                                         0.473082      -0.081836
                                                         0.173607      -0.000922
                                                         0.063708      -0.000031
                          1       5    2pz              26.086483      -5.643712
                                                         9.572948      -5.089545
                                                         3.512981      -2.722989
                                                         1.289157      -0.796601
                                                         0.473082      -0.081836
                                                         0.173607      -0.000922
                                                         0.063708      -0.000031

                          1       6    3px              26.086483       2.184064
                                                         9.572948       2.598889
                                                         3.512981       0.942716
                                                         1.289157       0.486271
                                                         0.473082      -0.165883
                                                         0.173607      -0.134541
                                                         0.063708       0.001333
                          1       6    3py              26.086483       2.184064
                                                         9.572948       2.598889
                                                         3.512981       0.942716
                                                         1.289157       0.486271
                                                         0.473082      -0.165883
                                                         0.173607      -0.134541
                                                         0.063708       0.001333
                          1       6    3pz              26.086483       2.184064
                                                         9.572948       2.598889
                                                         3.512981       0.942716
                                                         1.289157       0.486271
                                                         0.473082      -0.165883
                                                         0.173607      -0.134541
                                                         0.063708       0.001333

                          1       7    4px              26.086483      -3.290937
                                                         9.572948      -1.560822
                                                         3.512981      -2.037962
                                                         1.289157       0.070392
                                                         0.473082       0.325213
                                                         0.173607       0.041272
                                                         0.063708      -0.049827
                          1       7    4py              26.086483      -3.290937
                                                         9.572948      -1.560822
                                                         3.512981      -2.037962
                                                         1.289157       0.070392
                                                         0.473082       0.325213
                                                         0.173607       0.041272
                                                         0.063708      -0.049827
                          1       7    4pz              26.086483      -3.290937
                                                         9.572948      -1.560822
                                                         3.512981      -2.037962
                                                         1.289157       0.070392
                                                         0.473082       0.325213
                                                         0.173607       0.041272
                                                         0.063708      -0.049827

                          2       1    1dx2              0.299800       0.199924
                                                         0.128500       0.000000
                          2       1    1dxy              0.299800       0.346278
                                                         0.128500       0.000000
                          2       1    1dxz              0.299800       0.346278
                                                         0.128500       0.000000
                          2       1    1dy2              0.299800       0.199924
                                                         0.128500       0.000000
                          2       1    1dyz              0.299800       0.346278
                                                         0.128500       0.000000
                          2       1    1dz2              0.299800       0.199924
                                                         0.128500       0.000000

                          2       2    2dx2              0.299800       0.000000
                                                         0.128500       0.045393
                          2       2    2dxy              0.299800       0.000000
                                                         0.128500       0.078623
                          2       2    2dxz              0.299800       0.000000
                                                         0.128500       0.078623
                          2       2    2dy2              0.299800       0.000000
                                                         0.128500       0.045393
                          2       2    2dyz              0.299800       0.000000
                                                         0.128500       0.078623
                          2       2    2dz2              0.299800       0.000000
                                                         0.128500       0.045393

                          3       1    1fx3              0.241700       0.060301
                          3       1    1fx2y             0.241700       0.134838
                          3       1    1fx2z             0.241700       0.134838
                          3       1    1fxy2             0.241700       0.134838
                          3       1    1fxyz             0.241700       0.233546
                          3       1    1fxz2             0.241700       0.134838
                          3       1    1fy3              0.241700       0.060301
                          3       1    1fy2z             0.241700       0.134838
                          3       1    1fyz2             0.241700       0.134838
                          3       1    1fz3              0.241700       0.060301

       Atomic covalent radius [Angstrom]:                                  1.360

       Atomic van der Waals radius [Angstrom]:                             1.730

     GTH Potential information for                                   gth-hyb-q10

       Description:                       Goedecker-Teter-Hutter pseudopotential
                                           Goedecker et al., PRB 54, 1703 (1996)
                                          Hartwigsen et al., PRB 58, 3641 (1998)
                                                      Krack, TCA 114, 145 (2005)

       Gaussian exponent of the core charge distribution:              13.631610
       Electronic configuration (s p d ...):                       4   6   0   0

       Parameters of the local part of the GTH pseudopotential:

                          rloc        C1          C2          C3          C4
                        0.191519  -20.589965    3.054227    0.010372

       Parameters of the non-local part of the GTH pseudopotential:

                   l      r(l)      h(i,j,l)

                   0    0.141181   41.046492
                   1    0.103444  -10.149942

  3. Atomic kind: O                                     Number of atoms:      31

     Orbital Basis Set                                                ccgrb-d-q6

       Number of orbital shell sets:                                           2
       Number of orbital shells:                                               5
       Number of primitive Cartesian functions:                                5
       Number of Cartesian basis functions:                                   14
       Number of spherical basis functions:                                   13
       Norm type:                                                              2

       Normalised Cartesian orbitals:

                        Set   Shell   Orbital            Exponent    Coefficient

                          1       1    1s                8.329701      -0.539122
                                                         2.449085       0.077872
                                                         0.720076       0.403512
                                                         0.211716       0.075417

                          1       2    2s                8.329701       0.438938
                                                         2.449085      -0.037683
                                                         0.720076      -0.798097
                                                         0.211716       0.342568

                          1       3    2px               8.329701       1.919618
                                                         2.449085       1.337448
                                                         0.720076       0.463189
                                                         0.211716       0.073564
                          1       3    2py               8.329701       1.919618
                                                         2.449085       1.337448
                                                         0.720076       0.463189
                                                         0.211716       0.073564
                          1       3    2pz               8.329701       1.919618
                                                         2.449085       1.337448
                                                         0.720076       0.463189
                                                         0.211716       0.073564

                          1       4    3px               8.329701      -1.840835
                                                         2.449085      -1.158505
                                                         0.720076      -0.622457
                                                         0.211716       0.235438
                          1       4    3py               8.329701      -1.840835
                                                         2.449085      -1.158505
                                                         0.720076      -0.622457
                                                         0.211716       0.235438
                          1       4    3pz               8.329701      -1.840835
                                                         2.449085      -1.158505
                                                         0.720076      -0.622457
                                                         0.211716       0.235438

                          2       1    1dx2              1.185000       2.215218
                          2       1    1dxy              1.185000       3.836871
                          2       1    1dxz              1.185000       3.836871
                          2       1    1dy2              1.185000       2.215218
                          2       1    1dyz              1.185000       3.836871
                          2       1    1dz2              1.185000       2.215218

       Atomic covalent radius [Angstrom]:                                  0.730

       Atomic van der Waals radius [Angstrom]:                             1.520

     GTH Potential information for                                    gth-hyb-q6

       Description:                       Goedecker-Teter-Hutter pseudopotential
                                           Goedecker et al., PRB 54, 1703 (1996)
                                          Hartwigsen et al., PRB 58, 3641 (1998)
                                                      Krack, TCA 114, 145 (2005)

       Gaussian exponent of the core charge distribution:               8.214783
       Electronic configuration (s p d ...):                       2   4   0   0

       Parameters of the local part of the GTH pseudopotential:

                          rloc        C1          C2          C3          C4
                        0.246710  -16.655333    2.508548

       Parameters of the non-local part of the GTH pseudopotential:

                   l      r(l)      h(i,j,l)

                   0    0.221002   18.343705

  4. Atomic kind: OX                                    Number of atoms:       1

     Orbital Basis Set                                                ccgrb-t-q6

       Number of orbital shell sets:                                           3
       Number of orbital shells:                                               9
       Number of primitive Cartesian functions:                                8
       Number of Cartesian basis functions:                                   34
       Number of spherical basis functions:                                   29
       Norm type:                                                              2

       Normalised Cartesian orbitals:

                        Set   Shell   Orbital            Exponent    Coefficient

                          1       1    1s               10.251543      -0.411126
                                                         3.663839      -0.198039
                                                         1.309434       0.343538
                                                         0.467984       0.239257
                                                         0.167254       0.034036

                          1       2    2s               10.251543       0.307167
                                                         3.663839       0.218584
                                                         1.309434      -0.510837
                                                         0.467984      -0.334451
                                                         0.167254       0.278441

                          1       3    3s               10.251543      -0.165638
                                                         3.663839      -1.058865
                                                         1.309434       2.538348
                                                         0.467984      -1.444394
                                                         0.167254       0.310791

                          1       4    2px              10.251543      -1.565455
                                                         3.663839      -1.339206
                                                         1.309434      -0.735802
                                                         0.467984      -0.216397
                                                         0.167254      -0.038742
                          1       4    2py              10.251543      -1.565455
                                                         3.663839      -1.339206
                                                         1.309434      -0.735802
                                                         0.467984      -0.216397
                                                         0.167254      -0.038742
                          1       4    2pz              10.251543      -1.565455
                                                         3.663839      -1.339206
                                                         1.309434      -0.735802
                                                         0.467984      -0.216397
                                                         0.167254      -0.038742

                          1       5    3px              10.251543       1.184868
                                                         3.663839       1.230372
                                                         1.309434       0.580597
                                                         0.467984       0.249973
                                                         0.167254      -0.179255
                          1       5    3py              10.251543       1.184868
                                                         3.663839       1.230372
                                                         1.309434       0.580597
                                                         0.467984       0.249973
                                                         0.167254      -0.179255
                          1       5    3pz              10.251543       1.184868
                                                         3.663839       1.230372
                                                         1.309434       0.580597
                                                         0.467984       0.249973
                                                         0.167254      -0.179255

                          1       6    4px              10.251543      -2.629130
                                                         3.663839      -1.080422
                                                         1.309434      -2.241581
                                                         0.467984       1.130435
                                                         0.167254      -0.164930
                          1       6    4py              10.251543      -2.629130
                                                         3.663839      -1.080422
                                                         1.309434      -2.241581
                                                         0.467984       1.130435
                                                         0.167254      -0.164930
                          1       6    4pz              10.251543      -2.629130
                                                         3.663839      -1.080422
                                                         1.309434      -2.241581
                                                         0.467984       1.130435
                                                         0.167254      -0.164930

                          2       1    1dx2              2.314000       7.145709
                                                         0.645000       0.000000
                          2       1    1dxy              2.314000      12.376731
                                                         0.645000       0.000000
                          2       1    1dxz              2.314000      12.376731
                                                         0.645000       0.000000
                          2       1    1dy2              2.314000       7.145709
                                                         0.645000       0.000000
                          2       1    1dyz              2.314000      12.376731
                                                         0.645000       0.000000
                          2       1    1dz2              2.314000       7.145709
                                                         0.645000       0.000000

                          2       2    2dx2              2.314000       0.000000
                                                         0.645000       0.764080
                          2       2    2dxy              2.314000       0.000000
                                                         0.645000       1.323426
                          2       2    2dxz              2.314000       0.000000
                                                         0.645000       1.323426
                          2       2    2dy2              2.314000       0.000000
                                                         0.645000       0.764080
                          2       2    2dyz              2.314000       0.000000
                                                         0.645000       1.323426
                          2       2    2dz2              2.314000       0.000000
                                                         0.645000       0.764080

                          3       1    1fx3              1.428000       3.281655
                          3       1    1fx2y             1.428000       7.338004
                          3       1    1fx2z             1.428000       7.338004
                          3       1    1fxy2             1.428000       7.338004
                          3       1    1fxyz             1.428000      12.709795
                          3       1    1fxz2             1.428000       7.338004
                          3       1    1fy3              1.428000       3.281655
                          3       1    1fy2z             1.428000       7.338004
                          3       1    1fyz2             1.428000       7.338004
                          3       1    1fz3              1.428000       3.281655

     The atoms of this atomic kind are GHOST atoms!

       Atomic covalent radius [Angstrom]:                                  0.730

       Atomic van der Waals radius [Angstrom]:                             1.520


 MOLECULE KIND INFORMATION


 All atoms are their own molecule, skipping detailed information


 TOTAL NUMBERS AND MAXIMUM NUMBERS

  Total number of            - Atomic kinds:                                   4
                             - Atoms:                                         64
                             - Shell sets:                                   135
                             - Shells:                                       380
                             - Primitive Cartesian functions:                405
                             - Cartesian basis functions:                   1068
                             - Spherical basis functions:                    976

  Maximum angular momentum of- Orbital basis functions:                        3
                             - Local part of the GTH pseudopotential:          4
                             - Non-local part of the GTH pseudopotential:      1


 MODULE QUICKSTEP: ATOMIC COORDINATES IN ANGSTROM

   Atom Kind Element         X             Y             Z       Z(eff)     Mass
      1    1 Mg   12      0.000000      0.002899      0.000000  10.0000  24.3050
      2    1 Mg   12      0.000000      0.001486      4.274027  10.0000  24.3050
      3    1 Mg   12     -0.000000      4.276408     -0.000000  10.0000  24.3050
      4    1 Mg   12      0.000000      4.278202      4.274027  10.0000  24.3050
      5    1 Mg   12      4.274027      0.001486      0.000000  10.0000  24.3050
      6    1 Mg   12      4.274027      4.278202      0.000000  10.0000  24.3050
      7    1 Mg   12     -0.000000      2.181830      2.135785  10.0000  24.3050
      8    1 Mg   12      0.000000      2.181830      6.412269  10.0000  24.3050
      9    1 Mg   12     -0.000000      6.455918      2.137195  10.0000  24.3050
     10    1 Mg   12      0.000000      6.455919      6.410859  10.0000  24.3050
     11    1 Mg   12      4.274027      6.455894      2.136759  10.0000  24.3050
     12    1 Mg   12      4.274027      6.455894      6.411295  10.0000  24.3050
     13    1 Mg   12      2.137018      0.002658      2.137018  10.0000  24.3050
     14    1 Mg   12      2.137018      0.002658      6.411036  10.0000  24.3050
     15    1 Mg   12      2.137057      4.276675      2.137057  10.0000  24.3050
     16    1 Mg   12      2.137058      4.276675      6.410997  10.0000  24.3050
     17    1 Mg   12      6.411036      0.002658      2.137018  10.0000  24.3050
     18    1 Mg   12      6.411036      0.002658      6.411036  10.0000  24.3050
     19    1 Mg   12      6.410997      4.276675      2.137058  10.0000  24.3050
     20    1 Mg   12      6.410997      4.276675      6.410997  10.0000  24.3050
     21    1 Mg   12      2.135785      2.181830     -0.000000  10.0000  24.3050
     22    1 Mg   12      2.137195      6.455918     -0.000000  10.0000  24.3050
     23    1 Mg   12      2.136759      6.455894      4.274027  10.0000  24.3050
     24    1 Mg   12      6.412269      2.181830      0.000000  10.0000  24.3050
     25    1 Mg   12      6.410859      6.455919      0.000000  10.0000  24.3050
     26    1 Mg   12      6.411295      6.455894      4.274027  10.0000  24.3050
     27    2 Mg   12      4.274027      0.001296      4.274027  10.0000  24.3050
     28    2 Mg   12      4.274027      4.277139      4.274027  10.0000  24.3050
     29    2 Mg   12      4.274027      2.181931      2.091269  10.0000  24.3050
     30    2 Mg   12      4.274027      2.181931      6.456785  10.0000  24.3050
     31    2 Mg   12      2.091269      2.181931      4.274027  10.0000  24.3050
     32    2 Mg   12      6.456785      2.181931      4.274027  10.0000  24.3050
     33    3 O     8     -0.000000      0.024658      2.139448   6.0000  15.9994
     34    3 O     8     -0.000000      0.024653      6.408606   6.0000  15.9994
     35    3 O     8      0.000000      4.294578      2.138613   6.0000  15.9994
     36    3 O     8      0.000000      4.294574      6.409442   6.0000  15.9994
     37    3 O     8      4.274027      0.026164      2.134987   6.0000  15.9994
     38    3 O     8      4.274027      0.026163      6.413066   6.0000  15.9994
     39    3 O     8      4.274027      4.295607      2.132390   6.0000  15.9994
     40    3 O     8      4.274027      4.295607      6.415663   6.0000  15.9994
     41    3 O     8     -0.000000      2.161847     -0.000000   6.0000  15.9994
     42    3 O     8     -0.000000      2.163204      4.274027   6.0000  15.9994
     43    3 O     8      0.000001      6.436902      0.000001   6.0000  15.9994
     44    3 O     8      0.000000      6.437002      4.274028   6.0000  15.9994
     45    3 O     8      4.274027      2.163204     -0.000000   6.0000  15.9994
     46    3 O     8      4.274028      6.437002      0.000000   6.0000  15.9994
     47    3 O     8      4.274027      6.435820      4.274027   6.0000  15.9994
     48    3 O     8      2.139448      0.024658     -0.000000   6.0000  15.9994
     49    3 O     8      2.134987      0.026164      4.274027   6.0000  15.9994
     50    3 O     8      2.138613      4.294578      0.000000   6.0000  15.9994
     51    3 O     8      2.132390      4.295607      4.274027   6.0000  15.9994
     52    3 O     8      6.408606      0.024653     -0.000000   6.0000  15.9994
     53    3 O     8      6.413066      0.026163      4.274027   6.0000  15.9994
     54    3 O     8      6.409442      4.294574      0.000000   6.0000  15.9994
     55    3 O     8      6.415663      4.295607      4.274027   6.0000  15.9994
     56    3 O     8      2.134131      2.161475      2.134131   6.0000  15.9994
     57    3 O     8      2.134131      2.161473      6.413923   6.0000  15.9994
     58    3 O     8      2.138144      6.436768      2.138144   6.0000  15.9994
     59    3 O     8      2.138145      6.436766      6.409911   6.0000  15.9994
     60    3 O     8      6.413923      2.161473      2.134131   6.0000  15.9994
     61    3 O     8      6.413923      2.161472      6.413923   6.0000  15.9994
     62    3 O     8      6.409911      6.436766      2.138145   6.0000  15.9994
     63    3 O     8      6.409910      6.436763      6.409910   6.0000  15.9994
     64    4 O     8      4.274027      2.167693      4.274027   0.0000  15.9994



 SCF PARAMETERS         Density guess:                                   RESTART
                        --------------------------------------------------------
                        max_scf:                                             100
                        max_scf_history:                                       0
                        max_diis:                                              4
                        --------------------------------------------------------
                        eps_scf:                                        1.00E-06
                        eps_scf_history:                                0.00E+00
                        eps_diis:                                       1.00E-01
                        eps_eigval:                                     1.00E-05
                        --------------------------------------------------------
                        level_shift [a.u.]:                             0.000000
                        added MOs                                        10    0
                        --------------------------------------------------------
                        Mixing method:                           DIRECT_P_MIXING
                        --------------------------------------------------------
                        No outer SCF

 PW_GRID| Information for grid number                                          1
 PW_GRID| Grid distributed over                                    64 processors
 PW_GRID| Real space group dimensions                                    64    1
 PW_GRID| the grid is blocked:                                                NO
 PW_GRID| Cutoff [a.u.]                                                    500.0
 PW_GRID| spherical cutoff:                                                   NO
 PW_GRID|   Bounds   1            -90      89                Points:         180
 PW_GRID|   Bounds   2            -90      89                Points:         180
 PW_GRID|   Bounds   3            -90      89                Points:         180
 PW_GRID| Volume element (a.u.^3)  0.7227E-03     Volume (a.u.^3)      4215.0078
 PW_GRID| Grid span                                                    FULLSPACE
 PW_GRID|   Distribution                         Average         Max         Min
 PW_GRID|   G-Vectors                            91125.0       91260       91080
 PW_GRID|   G-Rays                                 506.2         507         506
 PW_GRID|   Real Space Points                    91125.0       97200       64800

 PW_GRID| Information for grid number                                          2
 PW_GRID| Number of the reference grid                                         1
 PW_GRID| Grid distributed over                                    64 processors
 PW_GRID| Real space group dimensions                                    64    1
 PW_GRID| the grid is blocked:                                                NO
 PW_GRID| Cutoff [a.u.]                                                    166.7
 PW_GRID| spherical cutoff:                                                   NO
 PW_GRID|   Bounds   1            -48      47                Points:          96
 PW_GRID|   Bounds   2            -48      47                Points:          96
 PW_GRID|   Bounds   3            -48      47                Points:          96
 PW_GRID| Volume element (a.u.^3)  0.4764E-02     Volume (a.u.^3)      4215.0078
 PW_GRID| Grid span                                                    FULLSPACE
 PW_GRID|   Distribution                         Average         Max         Min
 PW_GRID|   G-Vectors                            13824.0       14016       13728
 PW_GRID|   G-Rays                                 144.0         146         143
 PW_GRID|   Real Space Points                    13824.0       18432        9216

 PW_GRID| Information for grid number                                          3
 PW_GRID| Number of the reference grid                                         1
 PW_GRID| Grid distributed over                                    64 processors
 PW_GRID| Real space group dimensions                                     8    8
 PW_GRID| the grid is blocked:                                                NO
 PW_GRID| Cutoff [a.u.]                                                     55.6
 PW_GRID| spherical cutoff:                                                   NO
 PW_GRID|   Bounds   1            -30      29                Points:          60
 PW_GRID|   Bounds   2            -30      29                Points:          60
 PW_GRID|   Bounds   3            -30      29                Points:          60
 PW_GRID| Volume element (a.u.^3)  0.1951E-01     Volume (a.u.^3)      4215.0078
 PW_GRID| Grid span                                                    FULLSPACE
 PW_GRID|   Distribution                         Average         Max         Min
 PW_GRID|   G-Vectors                             3375.0        3540        3240
 PW_GRID|   G-Rays                                  56.2          59          54
 PW_GRID|   Real Space Points                     3375.0        3840        2940

 PW_GRID| Information for grid number                                          4
 PW_GRID| Number of the reference grid                                         1
 PW_GRID| Grid distributed over                                    64 processors
 PW_GRID| Real space group dimensions                                     8    8
 PW_GRID| the grid is blocked:                                                NO
 PW_GRID| Cutoff [a.u.]                                                     18.5
 PW_GRID| spherical cutoff:                                                   NO
 PW_GRID|   Bounds   1            -16      15                Points:          32
 PW_GRID|   Bounds   2            -16      15                Points:          32
 PW_GRID|   Bounds   3            -16      15                Points:          32
 PW_GRID| Volume element (a.u.^3)  0.1286         Volume (a.u.^3)      4215.0078
 PW_GRID| Grid span                                                    FULLSPACE
 PW_GRID|   Distribution                         Average         Max         Min
 PW_GRID|   G-Vectors                              512.0         576         480
 PW_GRID|   G-Rays                                  16.0          18          15
 PW_GRID|   Real Space Points                      512.0         512         512

 POISSON| Solver                                                        PERIODIC
 POISSON| Periodicity                                                        XYZ

 RS_GRID| Information for grid number                                          1
 RS_GRID|   Bounds   1            -90      89                Points:         180
 RS_GRID|   Bounds   2            -90      89                Points:         180
 RS_GRID|   Bounds   3            -90      89                Points:         180
 RS_GRID| Real space distribution over                                  4 groups
 RS_GRID| Real space distribution along direction                              1
 RS_GRID| Border size                                                         23
 RS_GRID| Real space distribution over                                  4 groups
 RS_GRID| Real space distribution along direction                              2
 RS_GRID| Border size                                                         23
 RS_GRID| Real space distribution over                                  4 groups
 RS_GRID| Real space distribution along direction                              3
 RS_GRID| Border size                                                         23
 RS_GRID|   Distribution                         Average         Max         Min
 RS_GRID|   Planes                                  91.0          91          91
 RS_GRID|   Distribution                         Average         Max         Min
 RS_GRID|   Planes                                  91.0          91          91
 RS_GRID|   Distribution                         Average         Max         Min
 RS_GRID|   Planes                                  91.0          91          91

 RS_GRID| Information for grid number                                          2
 RS_GRID|   Bounds   1            -48      47                Points:          96
 RS_GRID|   Bounds   2            -48      47                Points:          96
 RS_GRID|   Bounds   3            -48      47                Points:          96
 RS_GRID| Real space distribution over                                  4 groups
 RS_GRID| Real space distribution along direction                              1
 RS_GRID| Border size                                                         23
 RS_GRID| Real space distribution over                                  4 groups
 RS_GRID| Real space distribution along direction                              2
 RS_GRID| Border size                                                         23
 RS_GRID| Real space distribution over                                  4 groups
 RS_GRID| Real space distribution along direction                              3
 RS_GRID| Border size                                                         23
 RS_GRID|   Distribution                         Average         Max         Min
 RS_GRID|   Planes                                  70.0          70          70
 RS_GRID|   Distribution                         Average         Max         Min
 RS_GRID|   Planes                                  70.0          70          70
 RS_GRID|   Distribution                         Average         Max         Min
 RS_GRID|   Planes                                  70.0          70          70

 RS_GRID| Information for grid number                                          3
 RS_GRID|   Bounds   1            -30      29                Points:          60
 RS_GRID|   Bounds   2            -30      29                Points:          60
 RS_GRID|   Bounds   3            -30      29                Points:          60
 RS_GRID| Real space fully replicated
 RS_GRID| Group size                                                           1

 RS_GRID| Information for grid number                                          4
 RS_GRID|   Bounds   1            -16      15                Points:          32
 RS_GRID|   Bounds   2            -16      15                Points:          32
 RS_GRID|   Bounds   3            -16      15                Points:          32
 RS_GRID| Real space fully replicated
 RS_GRID| Group size                                                           1

  HFX_INFO| Replica ID:                                                        1
  HFX_INFO| FRACTION:                                               1.0000000000
  HFX_INFO| Interaction Potential:                              TRUNCATED MIX_CL
  HFX_INFO| Cutoff Radius [angstrom]:                               4.2500000000
  HFX_INFO| EPS_SCHWARZ:                                                 1.0E-10
  HFX_INFO| EPS_SCHWARZ_FORCES                                           1.0E-06
  HFX_INFO| EPS_STORAGE_SCALING:                                         1.0E+00
  HFX_INFO| NBINS:                                                            64
  HFX_INFO| BLOCK_SIZE:                                                        1
  HFX_INFO| NUMBER_OF_SHELLS:                                               AUTO
  HFX_INFO| Number of periodic shells considered:                             -1
  HFX_INFO| Number of periodic cells considered:                             179


 Number of electrons:                                                        506
 Number of occupied orbitals:                                                253
 Number of molecular orbitals:                                               263

 Number of orbital functions:                                                976
 Number of independent orbital functions:                                    976

 Extrapolation method: initial_guess

 MO| EIGENVALUES AND OCCUPATION NUMBERS AFTER SCF STEP 0
 MO|
 MO|  Index      Eigenvalue [a.u.]        Eigenvalue [eV]             Occupation
 MO|      1              -2.500252             -68.035318               2.000000
 MO|      2              -2.500148             -68.032498               2.000000
 MO|      3              -2.500099             -68.031142               2.000000
 MO|      4              -2.500023             -68.029097               2.000000
 MO|      5              -2.500023             -68.029097               2.000000
 MO|      6              -2.500020             -68.028996               2.000000
 MO|      7              -2.499995             -68.028328               2.000000
 MO|      8              -2.499861             -68.024689               2.000000
 MO|      9              -2.499837             -68.024031               2.000000
 MO|     10              -2.499761             -68.021944               2.000000
 MO|     11              -2.499712             -68.020610               2.000000
 MO|     12              -2.499712             -68.020610               2.000000
 MO|     13              -2.499681             -68.019791               2.000000
 MO|     14              -2.499562             -68.016551               2.000000
 MO|     15              -2.499558             -68.016444               2.000000
 MO|     16              -2.499558             -68.016444               2.000000
 MO|     17              -2.499512             -68.015178               2.000000
 MO|     18              -2.499474             -68.014134               2.000000
 MO|     19              -2.499445             -68.013366               2.000000
 MO|     20              -2.499291             -68.009178               2.000000
 MO|     21              -2.499290             -68.009136               2.000000
 MO|     22              -2.499290             -68.009134               2.000000
 MO|     23              -2.499282             -68.008922               2.000000
 MO|     24              -2.499241             -68.007804               2.000000
 MO|     25              -2.499173             -68.005968               2.000000
 MO|     26              -2.499173             -68.005967               2.000000
 MO|     27              -2.499163             -68.005680               2.000000
 MO|     28              -2.499147             -68.005242               2.000000
 MO|     29              -2.499120             -68.004518               2.000000
 MO|     30              -2.499112             -68.004284               2.000000
 MO|     31              -2.499112             -68.004284               2.000000
 MO|     32              -2.499088             -68.003630               2.000000
 MO|     33              -1.293034             -35.185241               2.000000
 MO|     34              -1.292842             -35.180025               2.000000
 MO|     35              -1.292842             -35.180025               2.000000
 MO|     36              -1.292754             -35.177615               2.000000
 MO|     37              -1.292496             -35.170604               2.000000
 MO|     38              -1.292474             -35.170009               2.000000
 MO|     39              -1.292474             -35.170009               2.000000
 MO|     40              -1.292344             -35.166480               2.000000
 MO|     41              -1.292229             -35.163335               2.000000
 MO|     42              -1.292174             -35.161837               2.000000
 MO|     43              -1.292174             -35.161837               2.000000
 MO|     44              -1.292165             -35.161603               2.000000
 MO|     45              -1.292087             -35.159485               2.000000
 MO|     46              -1.291960             -35.156011               2.000000
 MO|     47              -1.291960             -35.156011               2.000000
 MO|     48              -1.291914             -35.154780               2.000000
 MO|     49              -1.291914             -35.154780               2.000000
 MO|     50              -1.291863             -35.153381               2.000000
 MO|     51              -1.291850             -35.153039               2.000000
 MO|     52              -1.291850             -35.153039               2.000000
 MO|     53              -1.291850             -35.153030               2.000000
 MO|     54              -1.291816             -35.152093               2.000000
 MO|     55              -1.291808             -35.151888               2.000000
 MO|     56              -1.291756             -35.150474               2.000000
 MO|     57              -1.291756             -35.150474               2.000000
 MO|     58              -1.291616             -35.146657               2.000000
 MO|     59              -1.291616             -35.146657               2.000000
 MO|     60              -1.291571             -35.145437               2.000000
 MO|     61              -1.291567             -35.145332               2.000000
 MO|     62              -1.291509             -35.143742               2.000000
 MO|     63              -1.291509             -35.143742               2.000000
 MO|     64              -1.291396             -35.140660               2.000000
 MO|     65              -1.291395             -35.140648               2.000000
 MO|     66              -1.291386             -35.140413               2.000000
 MO|     67              -1.291386             -35.140413               2.000000
 MO|     68              -1.291300             -35.138058               2.000000
 MO|     69              -1.291300             -35.138058               2.000000
 MO|     70              -1.291289             -35.137747               2.000000
 MO|     71              -1.291218             -35.135819               2.000000
 MO|     72              -1.291181             -35.134817               2.000000
 MO|     73              -1.291173             -35.134595               2.000000
 MO|     74              -1.291173             -35.134595               2.000000
 MO|     75              -1.291126             -35.133315               2.000000
 MO|     76              -1.291050             -35.131268               2.000000
 MO|     77              -1.291050             -35.131268               2.000000
 MO|     78              -1.290977             -35.129283               2.000000
 MO|     79              -1.290956             -35.128697               2.000000
 MO|     80              -1.290955             -35.128667               2.000000
 MO|     81              -1.290955             -35.128667               2.000000
 MO|     82              -1.290915             -35.127574               2.000000
 MO|     83              -1.290870             -35.126361               2.000000
 MO|     84              -1.290870             -35.126361               2.000000
 MO|     85              -1.290836             -35.125443               2.000000
 MO|     86              -1.290740             -35.122822               2.000000
 MO|     87              -1.290730             -35.122557               2.000000
 MO|     88              -1.290730             -35.122557               2.000000
 MO|     89              -1.290711             -35.122041               2.000000
 MO|     90              -1.290648             -35.120319               2.000000
 MO|     91              -1.290624             -35.119662               2.000000
 MO|     92              -1.290597             -35.118929               2.000000
 MO|     93              -1.290597             -35.118928               2.000000
 MO|     94              -1.290594             -35.118862               2.000000
 MO|     95              -1.290592             -35.118789               2.000000
 MO|     96              -1.290589             -35.118704               2.000000
 MO|     97              -1.290576             -35.118356               2.000000
 MO|     98              -1.290502             -35.116346               2.000000
 MO|     99              -1.290486             -35.115920               2.000000
 MO|    100              -1.290453             -35.115022               2.000000
 MO|    101              -1.290453             -35.115022               2.000000
 MO|    102              -1.290351             -35.112239               2.000000
 MO|    103              -1.290310             -35.111108               2.000000
 MO|    104              -1.290294             -35.110692               2.000000
 MO|    105              -1.290291             -35.110615               2.000000
 MO|    106              -1.290291             -35.110614               2.000000
 MO|    107              -1.290281             -35.110331               2.000000
 MO|    108              -1.290244             -35.109334               2.000000
 MO|    109              -1.290244             -35.109334               2.000000
 MO|    110              -1.290195             -35.107997               2.000000
 MO|    111              -1.290195             -35.107996               2.000000
 MO|    112              -1.290147             -35.106687               2.000000
 MO|    113              -1.290145             -35.106627               2.000000
 MO|    114              -1.290145             -35.106626               2.000000
 MO|    115              -1.290045             -35.103921               2.000000
 MO|    116              -1.290009             -35.102938               2.000000
 MO|    117              -1.290009             -35.102937               2.000000
 MO|    118              -1.289994             -35.102523               2.000000
 MO|    119              -1.289994             -35.102523               2.000000
 MO|    120              -1.289985             -35.102265               2.000000
 MO|    121              -1.289944             -35.101160               2.000000
 MO|    122              -1.289927             -35.100694               2.000000
 MO|    123              -1.289921             -35.100543               2.000000
 MO|    124              -1.289921             -35.100543               2.000000
 MO|    125              -1.289916             -35.100400               2.000000
 MO|    126              -1.289735             -35.095479               2.000000
 MO|    127              -1.289722             -35.095134               2.000000
 MO|    128              -1.289722             -35.095134               2.000000
 MO|    129              -0.482411             -13.127078               2.000000
 MO|    130              -0.455941             -12.406781               2.000000
 MO|    131              -0.454861             -12.377402               2.000000
 MO|    132              -0.453734             -12.346733               2.000000
 MO|    133              -0.453734             -12.346733               2.000000
 MO|    134              -0.453453             -12.339081               2.000000
 MO|    135              -0.450073             -12.247099               2.000000
 MO|    136              -0.439774             -11.966855               2.000000
 MO|    137              -0.438192             -11.923822               2.000000
 MO|    138              -0.436847             -11.887213               2.000000
 MO|    139              -0.436847             -11.887213               2.000000
 MO|    140              -0.436621             -11.881074               2.000000
[...]
 flops    29 x    14 x    33              1393392       0.0%    100.0%      0.0%
 flops    30 x     1 x    14              1441440       0.0%    100.0%      0.0%
 flops    14 x     1 x    30              1441440       0.0%    100.0%      0.0%
 flops    13 x    29 x    33              1492920       0.0%    100.0%      0.0%
 flops    29 x    13 x    33              1592448       0.0%    100.0%      0.0%
 flops    30 x     1 x    13              1595880       0.0%    100.0%      0.0%
 flops    13 x     1 x    30              1595880       0.0%    100.0%      0.0%
 flops    30 x     7 x    14              1834560       0.0%    100.0%      0.0%
 flops    14 x     7 x    30              1834560       0.0%    100.0%      0.0%
 flops    30 x     7 x    13              2031120       0.0%    100.0%      0.0%
 flops    13 x     7 x    30              2031120       0.0%    100.0%      0.0%
 flops    29 x    29 x    32              2260608       0.0%    100.0%      0.0%
 flops    14 x     1 x    14              2914912       0.0%    100.0%      0.0%
 flops    30 x    30 x    39              2948400       0.0%    100.0%      0.0%
 flops    14 x     1 x    13              3227224       0.0%    100.0%      0.0%
 flops    13 x     1 x    14              3227224       0.0%    100.0%      0.0%
 flops    13 x     1 x    13              3572998       0.0%    100.0%      0.0%
 flops    14 x     7 x    14              3709888       0.0%    100.0%      0.0%
 flops    39 x    39 x   124              3772080       0.0%    100.0%      0.0%
 flops    32 x    39 x   111              3878784       0.0%    100.0%      0.0%
 flops    39 x    32 x   111              3878784       0.0%    100.0%      0.0%
 flops    14 x     7 x    13              4107376       0.0%    100.0%      0.0%
 flops    13 x     7 x    14              4107376       0.0%    100.0%      0.0%
 flops    32 x    39 x   122              4263168       0.0%    100.0%      0.0%
 flops    39 x    32 x   122              4263168       0.0%    100.0%      0.0%
 flops    13 x     7 x    13              4547452       0.0%    100.0%      0.0%
 flops    30 x    30 x    33              4989600       0.0%    100.0%      0.0%
 flops    14 x    30 x    39              5110560       0.0%    100.0%      0.0%
 flops    30 x    14 x    39              5110560       0.0%    100.0%      0.0%
 flops    30 x    13 x    39              5658120       0.0%    100.0%      0.0%
 flops    13 x    30 x    39              5658120       0.0%    100.0%      0.0%
 flops    29 x    30 x    32              7015680       0.0%    100.0%      0.0%
 flops    30 x    29 x    32              7015680       0.0%    100.0%      0.0%
 flops    14 x    30 x    33              8648640       0.0%    100.0%      0.0%
 flops    30 x    14 x    33              8648640       0.0%    100.0%      0.0%
 flops    30 x    13 x    33              9575280       0.0%    100.0%      0.0%
 flops    13 x    30 x    33              9575280       0.0%    100.0%      0.0%
 flops    14 x    14 x    39             10732176       0.0%    100.0%      0.0%
 flops    14 x    13 x    39             11441976       0.0%    100.0%      0.0%
 flops    13 x    14 x    39             11441976       0.0%    100.0%      0.0%
 flops    13 x    13 x    39             13076544       0.0%    100.0%      0.0%
 flops    14 x    29 x    32             14187264       0.0%    100.0%      0.0%
 flops    29 x    14 x    32             14187264       0.0%    100.0%      0.0%
 flops    13 x    29 x    32             15200640       0.0%    100.0%      0.0%
 flops    29 x    13 x    32             16214016       0.0%    100.0%      0.0%
 flops    14 x    14 x    33             18162144       0.0%    100.0%      0.0%
 flops    14 x    13 x    33             19363344       0.0%    100.0%      0.0%
 flops    13 x    14 x    33             19363344       0.0%    100.0%      0.0%
 flops    32 x    39 x   124             21665280       0.0%    100.0%      0.0%
 flops    39 x    32 x   124             21665280       0.0%    100.0%      0.0%
 flops    13 x    13 x    33             22129536       0.0%    100.0%      0.0%
 flops    32 x    32 x   111             22278144       0.0%    100.0%      0.0%
 flops    32 x    32 x   122             24485888       0.0%    100.0%      0.0%
 flops    29 x    32 x    30             37416960       0.0%    100.0%      0.0%
 flops    30 x    30 x    32             50803200       0.0%    100.0%      0.0%
 flops    29 x    32 x    14             75665408       0.0%    100.0%      0.0%
 flops    29 x    32 x    13             83772416       0.0%    100.0%      0.0%
 flops    14 x    30 x    32             88058880       0.0%    100.0%      0.0%
 flops    30 x    14 x    32             88058880       0.0%    100.0%      0.0%
 flops    30 x    13 x    32             97493760       0.0%    100.0%      0.0%
 flops    13 x    30 x    32             97493760       0.0%    100.0%      0.0%
 flops    32 x    32 x   124            124436480       0.0%    100.0%      0.0%
 flops    14 x    14 x    32            184923648       0.0%    100.0%      0.0%
 flops    14 x    13 x    32            197154048       0.0%    100.0%      0.0%
 flops    13 x    14 x    32            197154048       0.0%    100.0%      0.0%
 flops    13 x    13 x    32            225318912       0.0%    100.0%      0.0%
 flops    30 x    32 x    30            232243200       0.0%    100.0%      0.0%
 flops    30 x    32 x    14            469647360       0.0%    100.0%      0.0%
 flops    14 x    32 x    30            469647360       0.0%    100.0%      0.0%
 flops    30 x    32 x    13            519966720       0.0%    100.0%      0.0%
 flops    13 x    32 x    30            519966720       0.0%    100.0%      0.0%
 flops    14 x    32 x    14            949731328       0.0%    100.0%      0.0%
 flops    14 x    32 x    13           1051488256       0.0%    100.0%      0.0%
 flops    13 x    32 x    14           1051488256       0.0%    100.0%      0.0%
 flops    13 x    32 x    13           1164147712       0.0%    100.0%      0.0%
 flops inhomo. stacks                   458627824     100.0%      0.0%      0.0%
 flops total                         8.872090E+09       5.2%     94.8%      0.0%
 flops max/rank                    157.120732E+06       8.4%     91.6%      0.0%
 matmuls inhomo. stacks                      8128     100.0%      0.0%      0.0%
 matmuls total                             612864       1.3%     98.7%      0.0%
 number of processed stacks                145058       1.3%     98.7%      0.0%
 average stack size                                     4.2       4.2       0.0
 marketing flops                    10.052991E+09
 -------------------------------------------------------------------------------
 # multiplications                             38
 max memory usage/rank               5.485281E+09
 # max total images/rank                        1
 # max 3D layers                                1
 # MPI messages exchanged                   34048
 MPI messages size (bytes):
  total size                         1.396720E+09
  min size                           0.000000E+00
  max size                         123.008000E+03
  average size                      41.022082E+03
 MPI breakdown and total messages size (bytes):
             size <=      128               10304                        0
       128 < size <=     8192                 686                  5619712
      8192 < size <=    32768               14658                454405616
     32768 < size <=   131072                8400                936694528
    131072 < size <=  4194304                   0                        0
   4194304 < size <= 16777216                   0                        0
  16777216 < size                               0                        0
 -------------------------------------------------------------------------------
 -                                                                             -
 -                      DBCSR MESSAGE PASSING PERFORMANCE                      -
 -                                                                             -
 -------------------------------------------------------------------------------
 ROUTINE             CALLS      AVE VOLUME [Bytes]
 MP_Bcast               97                     12.
 MP_Allreduce          377                     18.
 MP_Alltoall           607                  24679.
 MP_ISend             1170                  19442.
 MP_IRecv             1170                  19395.
 -------------------------------------------------------------------------------

 -------------------------------------------------------------------------------
 -                                                                             -
 -                                DBM STATISTICS                               -
 -                                                                             -
 -------------------------------------------------------------------------------
    M  x    N  x    K                                          COUNT     PERCENT
 -------------------------------------------------------------------------------

 -------------------------------------------------------------------------------
 -                                                                             -
 -                                GRID STATISTICS                              -
 -                                                                             -
 -------------------------------------------------------------------------------
 LP    KERNEL             BACKEND                              COUNT     PERCENT
 2     integrate ortho    CPU                                 481705      32.46%
 2     collocate ortho    CPU                                 344785      23.23%
 3     integrate ortho    CPU                                 284445      19.17%
 3     collocate ortho    CPU                                 203245      13.70%
 4     integrate ortho    CPU                                  79513       5.36%
 4     collocate ortho    CPU                                  56795       3.83%
 5     integrate ortho    CPU                                   9870       0.67%
 0     collocate general  CPU                                   8064       0.54%
 5     collocate ortho    CPU                                   7050       0.48%
 0     integrate general  CPU                                   4096       0.28%
 1     collocate ortho    CPU                                   3270       0.22%
 6     integrate ortho    CPU                                    637       0.04%
 6     collocate ortho    CPU                                    455       0.03%
 -------------------------------------------------------------------------------

 MEMORY| Estimated peak process memory [MiB]                                5232

 -------------------------------------------------------------------------------
 ----                             MULTIGRID INFO                            ----
 -------------------------------------------------------------------------------
 count for grid        1:        2186783          cutoff [a.u.]          500.00
 count for grid        2:        1175896          cutoff [a.u.]          166.67
 count for grid        3:         922355          cutoff [a.u.]           55.56
 count for grid        4:         806824          cutoff [a.u.]           18.52
 total gridlevel count  :        5091858

 -------------------------------------------------------------------------------
 -                                                                             -
 -                         MESSAGE PASSING PERFORMANCE                         -
 -                                                                             -
 -------------------------------------------------------------------------------

 ROUTINE             CALLS      AVE VOLUME [Bytes]
 MP_Group                8
 MP_Bcast              435                1842798.
 MP_Allreduce         1021                   9105.
 MP_Sync                55
 MP_Alltoall           213
 MP_SendRecv          1890                  17408.
 MP_ISendRecv         1512                  40893.
 MP_Wait              2734
 MP_comm_split           3
 MP_ISend             1034                 204767.
 MP_IRecv             1034                 205475.
 MP_Write_All            5                 213300.
 -------------------------------------------------------------------------------


 -------------------------------------------------------------------------------
 -                                                                             -
 -                           R E F E R E N C E S                               -
 -                                                                             -
 -------------------------------------------------------------------------------
 
 CP2K version 2023.2 (Development Version), the CP2K developers group (2023).
 CP2K is freely available from https://www.cp2k.org/ .

 Kuehne,Thomas D.; Iannuzzi,Marcella; Del Ben,Mauro;
 Rybkin,Vladimir V.; Seewald,Patrick; Stein,Frederick; Laino,Teodoro;
 Khaliullin,Rustam Z.; Schuett,Ole; Schiffmann,Florian; Golze,Dorothea;
 Wilhelm,Jan; Chulkov,Sergey; Bani-Hashemian,Mohammad Hossein;
 Weber,Valery; Borstnik,Urban; Taillefumier,Mathieu;
 Jakobovits,Alice Shoshana; Lazzaro,Alfio; Pabst,Hans; Mueller,Tiziano;
 Schade,Robert; Guidon,Manuel; Andermatt,Samuel; Holmberg,Nico;
 Schenter,Gregory K.; Hehn,Anna; Bussy,Augustin; Belleflamme,Fabian;
 Tabacchi,Gloria; Gloess,Andreas; Lass,Michael; Bethune,Iain;
 Mundy,Christopher J.; Plessl,Christian; Watkins,Matt;
 VandeVondele,Joost; Krack,Matthias; Hutter,Juerg. 
 The Journal of Chemical Physics, 152 (19), (2020). 
 CP2K: An electronic structure and molecular dynamics software package -
 Quickstep: Efficient and accurate electronic structure calculations.
 https://doi.org/10.1063/5.0007045

 Lehtola, S; Steigemann, C; Oliveira, MJT; Marques, MAL. 
 SoftwareX, 7, 1-5 (2018). 
 Recent developments in libxc - A comprehensive library of functionals
 for density functional theory.
 https://doi.org/10.1016/j.softx.2017.11.002

 Schuett, Ole; Messmer, Peter; Hutter, Juerg; VandeVondele, Joost. 
 Electronic Structure Calculations on Graphics Processing Units, John
 Wiley & Sons, Ltd, 173-190 (2016). 
 GPU-Accelerated Sparse Matrix-Matrix Multiplication for
 Linear Scaling Density Functional Theory.
 https://doi.org/10.1002/9781118670712.ch8

 Heinecke, A; Henry, G; Hutchinson, M; Pabst, H. 
 Proceedings of Intl. Supercomputing Conference, 981-991 (2016). 
 LIBXSMM: Accelerating Small Matrix Multiplications
 by Runtime Code Generation.
 https://doi.org/10.1109/SC.2016.83

 Borstnik, U; VandeVondele, J; Weber, V; Hutter, J. 
 PARALLEL COMPUTING, 40 (5-6), 47-58 (2014). 
 Sparse matrix multiplication: The distributed block-compressed sparse
 row library.
 https://doi.org/10.1016/j.parco.2014.03.012

 Hutter, J; Iannuzzi, M; Schiffmann, F; VandeVondele, J. 
 WIREs Comput Mol Sci., 4 (1), 15-25 (2014). 
 CP2K: atomistic simulations of condensed matter systems.
 https://doi.org/10.1002/wcms.1159

 Marques, MAL; Oliveira, MJT; Burnus, T. 
 COMPUTER PHYSICS COMMUNICATIONS, 183 (10), 2272-2281 (2012). 
 LIBXC: A library of exchange and correlation functionals for density
 functional theory.
 https://doi.org/10.1016/j.cpc.2012.05.007

 Guidon, M; Hutter, J; VandeVondele, J. 
 JOURNAL OF CHEMICAL THEORY AND COMPUTATION, 5 (11), 3010-3021 (2009). 
 Robust Periodic Hartree-Fock Exchange for Large-Scale Simulations Using
 Gaussian Basis Sets.
 https://doi.org/10.1021/ct900494g

 Guidon, M; Schiffmann, F; Hutter, J; VandeVondele, J. 
 JOURNAL OF CHEMICAL PHYSICS, 128 (21), 214104 (2008). 
 Ab initio molecular dynamics using hybrid density functionals.
 https://doi.org/10.1063/1.2931945

 Krack, M. 
 THEORETICAL CHEMISTRY ACCOUNTS, 114 (1-3), 145-152 (2005). 
 Pseudopotentials for H to Kr optimized for gradient-corrected
 exchange-correlation functionals.
 https://doi.org/10.1007/s00214-005-0655-y

 VandeVondele, J; Krack, M; Mohamed, F; Parrinello, M; Chassaing, T;
 Hutter, J. COMPUTER PHYSICS COMMUNICATIONS, 167 (2), 103-128 (2005). 
 QUICKSTEP: Fast and accurate density functional calculations using a
 mixed Gaussian and plane waves approach.
 https://doi.org/10.1016/j.cpc.2004.12.014

 Frigo, M; Johnson, SG. 
 PROCEEDINGS OF THE IEEE, 93 (2), 216-231 (2005). 
 The design and implementation of FFTW3.
 https://doi.org/10.1109/JPROC.2004.840301

 VandeVondele, J; Hutter, J. 
 JOURNAL OF CHEMICAL PHYSICS, 118 (10), 4365-4369 (2003). 
 An efficient orbital transformation method for electronic structure
 calculations.
 https://doi.org/10.1063/1.1543154

 Hartwigsen, C; Goedecker, S; Hutter, J. 
 PHYSICAL REVIEW B, 58 (7), 3641-3662 (1998). 
 Relativistic separable dual-space Gaussian pseudopotentials from H to Rn.
 https://doi.org/10.1103/PhysRevB.58.3641

 Lippert, G; Hutter, J; Parrinello, M. 
 MOLECULAR PHYSICS, 92 (3), 477-487 (1997). 
 A hybrid Gaussian and plane wave density functional scheme.
 https://doi.org/10.1080/002689797170220

 Goedecker, S; Teter, M; Hutter, J. 
 PHYSICAL REVIEW B, 54 (3), 1703-1710 (1996). 
 Separable dual-space Gaussian pseudopotentials.
 https://doi.org/10.1103/PhysRevB.54.1703


 -------------------------------------------------------------------------------
 -                                                                             -
 -                                T I M I N G                                  -
 -                                                                             -
 -------------------------------------------------------------------------------
 SUBROUTINE                       CALLS  ASD         SELF TIME        TOTAL TIME
                                MAXIMUM       AVERAGE  MAXIMUM  AVERAGE  MAXIMUM
 CP2K                                 1  1.0    0.309    0.415 3808.714 3839.592
 qs_energies                          1  2.0    0.000    0.000 3808.139 3839.012
 qs_ks_update_qs_env                  4  5.0    0.000    0.000 3727.794 3758.016
 rebuild_ks_matrix                    4  6.0    0.000    0.000 3727.793 3758.015
 qs_ks_build_kohn_sham_matrix         4  7.0    0.001    0.002 3727.793 3758.015
 hfx_ks_matrix                        4  8.0    0.000    0.000 3726.869 3757.083
 integrate_four_center                4  9.0    0.314    0.610 3726.868 3757.082
 scf_env_do_scf                       1  3.0    0.000    0.000 3712.555 3742.654
 scf_env_do_scf_inner_loop            1  4.0    0.000    0.000 3712.555 3742.654
 integrate_four_center_main           4 10.0    3.795   14.760 3239.642 3717.500
 integrate_four_center_bin          270 11.0 3235.847 3708.667 3235.847 3708.667
 mp_sync                             55  8.4  483.228  753.561  483.228  753.561
 active_space_main                    1  3.0    0.276    0.279   94.622   95.389
 rsdft_embedding                      1  4.0    0.571    0.576   93.457   94.215
 mp_bcast_av                        564  1.1    0.002    0.003   75.833   77.661
 mp_bcast_i                         291  2.2   75.830   77.657   75.830   77.657
 send_fock_to_client                  3  5.0    0.001    0.001   77.032   77.656
 readbuffer_s                         8  6.0    1.202   76.948    1.202   76.948
 -------------------------------------------------------------------------------

 The number of warnings for this run is : 0
 
 -------------------------------------------------------------------------------
  **** **** ******  **  PROGRAM ENDED AT                 2023-12-08 16:16:12.766
 ***** ** ***  *** **   PROGRAM RAN ON                                   tcopt13
 **    ****   ******    PROGRAM RAN BY                                  stefabat
 ***** **    ** ** **   PROGRAM PROCESS ID                                247737
  **** **  *******  **  PROGRAM STOPPED IN              /data/stefabat/tmp/MgO_0
