&FCI NORB=   5,NELEC=   2,MS2= 1,
  ORBSYM=1,1,1,1,1,
  ISYM=0,
 /
 7.9194395731962297E-02   1   1   1   1
-2.5170537238281779E-05   1   1   1   2
 1.7327171453181611E-04   1   1   1   3
 6.6218530819047729E-04   1   1   1   4
 3.1919000319207986E-04   1   1   1   5
 7.5115241927707271E-02   1   1   2   2
 1.1464920023544512E-04   1   1   2   3
 1.2693382318994240E-04   1   1   2   4
 6.4596657081184884E-04   1   1   2   5
 7.5912065289904074E-02   1   1   3   3
 1.9708337978030635E-04   1   1   3   4
 8.4613655020422110E-05   1   1   3   5
 7.1021704165993960E-02   1   1   4   4
-8.8627127582908190E-05   1   1   4   5
 7.1757924144270846E-02   1   1   5   5
 1.2609311182099200E-03   1   2   1   2
-5.9714225118294019E-05   1   2   1   3
-5.6770970212206209E-05   1   2   1   4
 1.9746655275288967E-04   1   2   1   5
 5.4049886727817933E-04   1   2   2   2
 8.0107267065861746E-05   1   2   2   3
-1.3673287048319381E-04   1   2   2   4
 4.9876290717616560E-05   1   2   2   5
 5.0370585381359590E-04   1   2   3   3
 6.9089600221690521E-05   1   2   3   4
-4.4569299841613418E-05   1   2   3   5
 4.4329324765996988E-05   1   2   4   4
-3.6580979596639935E-05   1   2   4   5
 3.4886110469734683E-04   1   2   5   5
 1.4127373534658465E-03   1   3   1   3
 3.1202413077769991E-04   1   3   1   4
 2.3721378468957473E-05   1   3   1   5
 1.3848338670908010E-04   1   3   2   2
-1.7067098364960021E-05   1   3   2   3
 6.4027610451575820E-05   1   3   2   4
 1.2522273295070230E-04   1   3   2   5
 1.6525646942496718E-04   1   3   3   3
-6.9863207209412651E-05   1   3   3   4
 6.5770415884551164E-05   1   3   3   5
 7.5289497335170039E-05   1   3   4   4
-6.3207665771158181E-05   1   3   4   5
 1.2696969239799240E-04   1   3   5   5
 1.3112033159594053E-03   1   4   1   4
-4.8000233880541711E-05   1   4   1   5
 3.3013577670795193E-04   1   4   2   2
 2.5237997223446975E-04   1   4   2   3
-2.7137901829568341E-04   1   4   2   4
 1.2163645313906755E-04   1   4   2   5
 6.7901056266549944E-04   1   4   3   3
-2.4712699211799354E-05   1   4   3   4
-8.9301258922303063E-05   1   4   3   5
 3.7099377798359586E-04   1   4   4   4
 1.0535564047342574E-04   1   4   4   5
 4.2214247615906858E-04   1   4   5   5
 1.4998502060688459E-03   1   5   1   5
 1.8577941909823085E-04   1   5   2   2
 5.3967326887288078E-05   1   5   2   3
 2.2396179028429113E-05   1   5   2   4
 2.6352216888670451E-04   1   5   2   5
 9.9397637304868237E-04   1   5   3   3
-1.2276439057286087E-04   1   5   3   4
 9.3353715162033745E-05   1   5   3   5
 3.7872837954496609E-04   1   5   4   4
-1.0347396263108483E-04   1   5   4   5
 2.7063283443595299E-04   1   5   5   5
 7.9931233725712883E-02   2   2   2   2
 1.4964109573294078E-04   2   2   2   3
 2.9554644203878523E-04   2   2   2   4
 1.1193188217856792E-03   2   2   2   5
 7.7917047104156534E-02   2   2   3   3
 5.8446552508329124E-04   2   2   3   4
 2.8282527897666762E-04   2   2   3   5
 7.1668591857202049E-02   2   2   4   4
-2.9445634023282565E-04   2   2   4   5
 7.2531120576900546E-02   2   2   5   5
 1.4802839034305704E-03   2   3   2   3
-7.7579261918750411E-05   2   3   2   4
-8.6071387831254480E-05   2   3   2   5
 1.0850468097382533E-04   2   3   3   3
 6.5114720029127074E-05   2   3   3   4
-2.3183070055070826E-05   2   3   3   5
 1.5527549769942697E-04   2   3   4   4
-6.1370575601760473E-05   2   3   4   5
 7.1147767994714944E-06   2   3   5   5
 1.3694550660997167E-03   2   4   2   4
-1.7674906289842895E-04   2   4   2   5
 4.3857797899011564E-04   2   4   3   3
 5.9335467071880833E-05   2   4   3   4
 2.6061522829086761E-04   2   4   3   5
 1.5815468400376910E-04   2   4   4   4
-1.0356235901835925E-04   2   4   4   5
 2.5433421663658979E-04   2   4   5   5
 1.5532561733718085E-03   2   5   2   5
 1.0853108748022076E-03   2   5   3   3
-2.1510033743045456E-04   2   5   3   4
 1.9843970315290897E-06   2   5   3   5
 6.4422854008018213E-04   2   5   4   4
 3.2774641664946012E-05   2   5   4   5
 5.4455307686688637E-04   2   5   5   5
 8.1592657742032920E-02   3   3   3   3
 6.3660828559195871E-04   3   3   3   4
 2.8891257287409560E-04   3   3   3   5
 7.2323804794337393E-02   3   3   4   4
-9.2473855102576455E-05   3   3   4   5
 7.2921551073349924E-02   3   3   5   5
 1.4272318778757675E-03   3   4   3   4
-1.0971767128524382E-04   3   4   3   5
 1.1273747388789575E-04   3   4   4   4
 3.8613007701078630E-05   3   4   4   5
 2.2370448024124805E-04   3   4   5   5
 1.2136622462780864E-03   3   5   3   5
 1.0216504672859999E-04   3   5   4   4
-5.4559035351817913E-05   3   5   4   5
 2.2796317639222713E-04   3   5   5   5
 7.1321218778490680E-02   4   4   4   4
-2.9074623997132535E-04   4   4   4   5
 6.9258106966276420E-02   4   4   5   5
 1.5721739608241653E-03   4   5   4   5
-1.2313630945470807E-04   4   5   5   5
 7.2528812309931912E-02   5   5   5   5
-8.9949461763219080E-02   1   1   0   0
-1.1014011382627070E-03   1   2   0   0
-3.6373105830009246E-04   1   3   0   0
-9.1982016835790760E-04   1   4   0   0
-1.3531468839207104E-03   1   5   0   0
-1.6748220623587631E-01   2   2   0   0
-4.3301827117921750E-04   2   3   0   0
-1.2502921622824814E-03   2   4   0   0
-2.6136662492396382E-03   2   5   0   0
-1.6951232951170001E-01   3   3   0   0
-1.0337280908618747E-03   3   4   0   0
-8.1144107285128966E-04   3   5   0   0
-1.4062797772037433E-01   4   4   0   0
 5.3946672702448787E-04   4   5   0   0
-1.4262745128772525E-01   5   5   0   0
-1.9833288254538073E+02   0   0   0   0
