XTB calculation started at Sun Oct 27 19:31:36 UTC 2024
Input file: al_slab_with_triazole_4x4x6_v10.0.xyz
Working directory: xtb_calc_20241027_193136
----------------------------------------
Running initial high-temperature calculation...
      -----------------------------------------------------------      
     |                   =====================                   |     
     |                           x T B                           |     
     |                   =====================                   |     
     |                         S. Grimme                         |     
     |          Mulliken Center for Theoretical Chemistry        |     
     |                    University of Bonn                     |     
      -----------------------------------------------------------      

   * xtb version 6.7.1 (edcfbbe) compiled by 'albert@albert-system' on 2024-07-22

   xtb is free software: you can redistribute it and/or modify it under
   the terms of the GNU Lesser General Public License as published by
   the Free Software Foundation, either version 3 of the License, or
   (at your option) any later version.
   
   xtb is distributed in the hope that it will be useful,
   but WITHOUT ANY WARRANTY; without even the implied warranty of
   MERCHANTABILITY or FITNESS FOR A PARTICULAR PURPOSE.  See the
   GNU Lesser General Public License for more details.
   
   Cite this work as:
   * C. Bannwarth, E. Caldeweyher, S. Ehlert, A. Hansen, P. Pracht,
     J. Seibert, S. Spicher, S. Grimme, WIREs Comput. Mol. Sci., 2020, 11,
     e01493. DOI: 10.1002/wcms.1493
   
   for GFN2-xTB:
   * C. Bannwarth, S. Ehlert and S. Grimme., J. Chem. Theory Comput., 2019,
     15, 1652-1671. DOI: 10.1021/acs.jctc.8b01176
   for GFN1-xTB:
   * S. Grimme, C. Bannwarth, P. Shushkov, J. Chem. Theory Comput., 2017,
     13, 1989-2009. DOI: 10.1021/acs.jctc.7b00118
   for GFN0-xTB:
   * P. Pracht, E. Caldeweyher, S. Ehlert, S. Grimme, ChemRxiv, 2019, preprint.
     DOI: 10.26434/chemrxiv.8326202.v1
   for GFN-FF:
   * S. Spicher and S. Grimme, Angew. Chem. Int. Ed., 2020, 59, 15665-15673.
     DOI: 10.1002/anie.202004239
   
   for ALPB and GBSA implicit solvation:
   * S. Ehlert, M. Stahn, S. Spicher, S. Grimme, J. Chem. Theory Comput.,
     2021, 17, 4250-4261. DOI: 10.1021/acs.jctc.1c00471
   
   for ddCOSMO and CPCM-X implicit solvation:
   * M. Stahn, S. Ehlert, S. Grimme, J. Phys. Chem. A,
     2023, XX, XXXX-XXXX. DOI: 10.1021/acs.jpca.3c04382
   
   for DFT-D4:
   * E. Caldeweyher, C. Bannwarth and S. Grimme, J. Chem. Phys., 2017,
     147, 034112. DOI: 10.1063/1.4993215
   * E. Caldeweyher, S. Ehlert, A. Hansen, H. Neugebauer, S. Spicher,
     C. Bannwarth and S. Grimme, J. Chem. Phys., 2019, 150, 154122.
     DOI: 10.1063/1.5090222
   * E. Caldeweyher, J.-M. Mewes, S. Ehlert and S. Grimme, Phys. Chem. Chem. Phys.
     2020, 22, 8499-8512. DOI: 10.1039/D0CP00502A
   
   for sTDA-xTB:
   * S. Grimme and C. Bannwarth, J. Chem. Phys., 2016, 145, 054103.
     DOI: 10.1063/1.4959605
   
   in the mass-spec context:
   * V. Asgeirsson, C. Bauer and S. Grimme, Chem. Sci., 2017, 8, 4879.
     DOI: 10.1039/c7sc00601b
   * J. Koopman and S. Grimme, ACS Omega 2019, 4, 12, 15120-15133.
     DOI: 10.1021/acsomega.9b02011
   
   for metadynamics refer to:
   * S. Grimme, J. Chem. Theory Comput., 2019, 155, 2847-2862
     DOI: 10.1021/acs.jctc.9b00143
   
   for SPH calculations refer to:
   * S. Spicher and S. Grimme, J. Chem. Theory Comput., 2021, 17, 1701-1714
     DOI: 10.1021/acs.jctc.0c01306
   
   for ONIOM refer to:
   * C. Plett, A. Katbashev, S. Ehlert, S. Grimme, M. Bursch,
     Phys. Chem. Chem. Phys., 2023, 25, 17860-17868. DOI: 10.1039/D3CP02178E
   
   for DIPRO refer to:
   * J. Kohn, N. Gildemeister, S. Grimme, D. Fazzi, A. Hansen,
     J. Chem. Phys., 2023, just accepted.
   
   for PTB refer to:
   * S. Grimme, M. Mueller, A. Hansen, J. Chem. Phys., 2023, 158, 124111.
     DOI: 10.1063/5.0137838
   
   with help from (in alphabetical order)
   P. Atkinson, C. Bannwarth, F. Bohle, G. Brandenburg, E. Caldeweyher
   M. Checinski, S. Dohm, S. Ehlert, S. Ehrlich, I. Gerasimov, C. Hölzer
   A. Katbashev, J. Kohn, J. Koopman, C. Lavigne, S. Lehtola, F. März, M. Müller,
   F. Musil, H. Neugebauer, J. Pisarek, C. Plett, P. Pracht, F. Pultar,
   J. Seibert, P. Shushkov, S. Spicher, M. Stahn, M. Steiner, T. Strunk,
   J. Stückrath, T. Rose, and J. Unsleber
   
 * started run on 2024/10/27 at 19:31:36.069     
   ID    Z sym.   atoms
    1   13 Al     1-96
    2    6 C      97, 99
    3    7 N      98, 100, 101
    4    1 H      102-104

           -------------------------------------------------
          |                Calculation Setup                |
           -------------------------------------------------

          program call               : xtb input.xyz --gfn 1 --etemp 10000.0 --input .xcontrol
          coordinate file            : input.xyz
          omp threads                :                    48


molecular fragmentation (1/2 indicates fragments):
111111111111111111111111111111111111111111111111111111111111111111111111
11111111111111122222222222222222
# atoms in fragment 1/2:    87    17
 fragment masses (1/2) :     2347.39      311.90
CMA distance (Bohr)    :  13.756
constraining FC (au)   :  0.0500

           -------------------------------------------------
          |                 G F N 1 - x T B                 |
           -------------------------------------------------

        Reference                      10.1021/acs.jctc.7b00118
      * Hamiltonian:
        H0-scaling (s, p, d)           1.850000    2.250000    2.000000
        zeta-weighting                 0.000000
      * Dispersion:
        s8                             2.400000
        a1                             0.630000
        a2                             5.000000
        s9                             0.000000
      * Repulsion:
        kExp                           1.500000
        rExp                           1.000000
      * Coulomb:
        alpha                          2.000000
        third order                    atomic
        anisotropic                    false
      * Halogen bond correction:
        rad-scale                      1.300000
        damping                        0.440000


          ...................................................
          :                      SETUP                      :
          :.................................................:
          :  # basis functions                 986          :
          :  # atomic orbitals                 890          :
          :  # shells                          304          :
          :  # electrons                       314          :
          :  # halogen bonds                     0          :
          :  max. iterations                   250          :
          :  Hamiltonian                  GFN1-xTB          :
          :  restarted?                      false          :
          :  GBSA solvation                  false          :
          :  PC potential                    false          :
          :  electronic temp.        10000.0000000     K    :
          :  accuracy                    1.0000000          :
          :  -> integral cutoff          0.2500000E+02      :
          :  -> integral neglect         0.1000000E-07      :
          :  -> SCF convergence          0.1000000E-05 Eh   :
          :  -> wf. convergence          0.2000000E-04 e    :
          :  Broyden damping             0.4000000          :
          :  net charge                          0          :
          :  unpaired electrons                  0          :
          ...................................................

 iter      E             dE          RMSdq      gap      omega  full diag
   1   -134.3705101 -0.134371E+03  0.476E+00    0.03       0.0  T
   2   -101.0942446  0.332763E+02  0.707E+00    0.09       1.0  T
   3    -90.1651830  0.109291E+02  0.590E+00    0.04       1.0  T
   4     -1.3252736  0.888399E+02  0.927E+00    0.05       1.0  T
   5   -114.4782597 -0.113153E+03  0.487E+00    0.05       1.0  T
   6   -133.3121838 -0.188339E+02  0.181E+00    0.07       1.0  T
   7   -127.5114321  0.580075E+01  0.249E+00    0.08       1.0  T
   8   -135.5669616 -0.805553E+01  0.943E-01    0.01       1.0  T
   9   -136.3192698 -0.752308E+00  0.417E-01    0.02       1.0  T
  10   -136.2662136  0.530563E-01  0.435E-01    0.02       1.0  T
  11   -136.2831183 -0.169047E-01  0.368E-01    0.02       1.0  T
  12   -136.2983403 -0.152220E-01  0.300E-01    0.03       1.0  T
  13   -136.3464471 -0.481068E-01  0.142E-01    0.02       1.0  T
  14   -136.3535315 -0.708435E-02  0.772E-02    0.03       1.0  T
  15   -136.3547928 -0.126137E-02  0.505E-02    0.03       1.0  T
  16   -136.3563982 -0.160532E-02  0.222E-02    0.03       1.0  T
  17   -136.3566974 -0.299267E-03  0.979E-03    0.03       1.0  T
  18   -136.3567020 -0.458424E-05  0.729E-03    0.03       1.3  T
  19   -136.3567149 -0.128784E-04  0.443E-03    0.03       2.2  T
  20   -136.3567201 -0.517393E-05  0.270E-03    0.03       3.6  T
  21   -136.3567275 -0.749002E-05  0.107E-03    0.03       9.2  T
  22   -136.3567286 -0.102957E-05  0.440E-04    0.03      22.3  T
  23   -136.3567286 -0.688989E-07  0.201E-04    0.03      48.8  T
  24   -136.3567286  0.849468E-08  0.164E-04    0.03      59.9  T
  25   -136.3567287 -0.267081E-07  0.757E-05    0.03     129.5  T

   *** convergence criteria satisfied after 25 iterations ***

         #    Occupation            Energy/Eh            Energy/eV
      -------------------------------------------------------------
         1        2.0000           -0.7735736             -21.0500
       ...           ...                  ...                  ...
       151        1.1243           -0.2371133              -6.4522
       152        1.1123           -0.2363407              -6.4312
       153        1.0971           -0.2353659              -6.4046
       154        1.0853           -0.2346151              -6.3842
       155        1.0403           -0.2317515              -6.3063
       156        1.0296           -0.2310762              -6.2879
       157        0.9732           -0.2275037              -6.1907 (HOMO)
       158        0.9555           -0.2263804              -6.1601 (LUMO)
       159        0.9094           -0.2234451              -6.0802
       160        0.9015           -0.2229402              -6.0665
       161        0.8749           -0.2212359              -6.0201
       162        0.8525           -0.2197901              -5.9808
       ...           ...                  ...                  ...
       890                         34.6454771             942.7514
      -------------------------------------------------------------
                  HL-Gap            0.0011233 Eh            0.0306 eV
             Fermi-level           -0.2291986 Eh           -6.2368 eV

 SCC (total)                   0 d,  0 h,  0 min,  2.534 sec
 SCC setup                      ...        0 min,  0.004 sec (  0.163%)
 Dispersion                     ...        0 min,  0.003 sec (  0.113%)
 classical contributions        ...        0 min,  0.000 sec (  0.017%)
 integral evaluation            ...        0 min,  0.068 sec (  2.697%)
 iterations                     ...        0 min,  2.386 sec ( 94.143%)
 molecular gradient             ...        0 min,  0.061 sec (  2.419%)
 printout                       ...        0 min,  0.011 sec (  0.444%)

         :::::::::::::::::::::::::::::::::::::::::::::::::::::
         ::                     SUMMARY                     ::
         :::::::::::::::::::::::::::::::::::::::::::::::::::::
         :: total energy            -136.367256120938 Eh    ::
         :: gradient norm              0.162437912562 Eh/a0 ::
         :: HOMO-LUMO gap              0.030566172199 eV    ::
         ::.................................................::
         :: SCC energy              -136.356728665075 Eh    ::
         :: -> electrostatic           0.052611395820 Eh    ::
         :: repulsion energy           0.311314863036 Eh    ::
         :: dispersion energy         -0.321842318898 Eh    ::
         :: halogen bond corr.         0.000000000000 Eh    ::
         :: add. restraining           0.000000000000 Eh    ::
         :: total charge              -0.000000000000 e     ::
         :::::::::::::::::::::::::::::::::::::::::::::::::::::

           -------------------------------------------------
          |                Property Printout                |
           -------------------------------------------------

    * Orbital Energies and Occupations

         #    Occupation            Energy/Eh            Energy/eV
      -------------------------------------------------------------
         1        2.0000           -0.7735736             -21.0500
       ...           ...                  ...                  ...
       145        1.2604           -0.2460801              -6.6962
       146        1.2424           -0.2448633              -6.6631
       147        1.2300           -0.2440292              -6.6404
       148        1.1854           -0.2410818              -6.5602
       149        1.1461           -0.2385164              -6.4904
       150        1.1282           -0.2373644              -6.4590
       151        1.1243           -0.2371133              -6.4522
       152        1.1123           -0.2363407              -6.4312
       153        1.0971           -0.2353659              -6.4046
       154        1.0853           -0.2346151              -6.3842
       155        1.0403           -0.2317515              -6.3063
       156        1.0296           -0.2310762              -6.2879
       157        0.9732           -0.2275037              -6.1907 (HOMO)
       158        0.9555           -0.2263804              -6.1601 (LUMO)
       159        0.9094           -0.2234451              -6.0802
       160        0.9015           -0.2229402              -6.0665
       161        0.8749           -0.2212359              -6.0201
       162        0.8525           -0.2197901              -5.9808
       163        0.8241           -0.2179432              -5.9305
       164        0.8052           -0.2167034              -5.8968
       165        0.7836           -0.2152725              -5.8579
       166        0.7555           -0.2133942              -5.8068
       167        0.7413           -0.2124342              -5.7806
       168        0.7295           -0.2116318              -5.7588
       ...           ...                  ...                  ...
       890                         34.6454771             942.7514
      -------------------------------------------------------------
                  HL-Gap            0.0011233 Eh            0.0306 eV
             Fermi-level           -0.2291986 Eh           -6.2368 eV

  Mulliken/CM5 charges         n(s)   n(p)   n(d)
     1Al   -0.02537 -0.02537   1.768  1.034  0.223
     2Al   -0.03635 -0.03635   1.720  1.129  0.187
     3Al   -0.03306 -0.03306   1.722  1.124  0.188
     4Al   -0.03169 -0.03169   1.768  1.035  0.228
     5Al   -0.00268 -0.00268   1.709  1.167  0.127
     6Al    0.02061  0.02061   1.687  1.247  0.045
     7Al    0.02313  0.02313   1.681  1.228  0.069
     8Al   -0.05128 -0.05128   1.732  1.105  0.215
     9Al   -0.02430 -0.02430   1.716  1.189  0.119
    10Al   -0.00270 -0.00270   1.689  1.260  0.054
    11Al    0.02529  0.02529   1.682  1.241  0.052
    12Al   -0.04357 -0.04357   1.728  1.098  0.218
    13Al   -0.01961 -0.01961   1.730  1.118  0.172
    14Al   -0.01393 -0.01393   1.712  1.173  0.130
    15Al   -0.00309 -0.00309   1.694  1.133  0.175
    16Al   -0.01077 -0.01077   1.795  0.973  0.243
    17Al   -0.04435 -0.04435   1.732  1.091  0.221
    18Al    0.05386  0.05386   1.665  1.285 -0.004
    19Al    0.02804  0.02804   1.680  1.300 -0.007
    20Al    0.01624  0.01624   1.680  1.251  0.053
    21Al   -0.01098 -0.01098   1.716  1.183  0.112
    22Al    0.05856  0.05856   1.667  1.363 -0.088
    23Al    0.02434  0.02434   1.677  1.373 -0.074
    24Al    0.02399  0.02399   1.683  1.299 -0.006
    25Al   -0.01549 -0.01549   1.713  1.176  0.127
    26Al    0.07322  0.07322   1.662  1.348 -0.084
    27Al    0.05882  0.05882   1.670  1.358 -0.087
    28Al    0.06008  0.06008   1.671  1.283 -0.015
    29Al   -0.03433 -0.03433   1.751  1.095  0.189
    30Al   -0.02233 -0.02233   1.711  1.191  0.121
    31Al   -0.01229 -0.01229   1.714  1.192  0.106
    32Al   -0.04088 -0.04088   1.732  1.093  0.216
    33Al   -0.02192 -0.02192   1.769  1.036  0.217
    34Al   -0.01006 -0.01006   1.712  1.179  0.120
    35Al   -0.03487 -0.03487   1.717  1.193  0.125
    36Al   -0.03125 -0.03125   1.733  1.140  0.158
    37Al    0.02558  0.02558   1.678  1.242  0.055
    38Al    0.04625  0.04625   1.673  1.359 -0.078
    39Al    0.03937  0.03937   1.676  1.353 -0.068
    40Al    0.00930  0.00930   1.689  1.254  0.047
    41Al   -0.00919 -0.00919   1.694  1.260  0.055
    42Al    0.01135  0.01135   1.682  1.362 -0.055
    43Al    0.01208  0.01208   1.683  1.357 -0.052
    44Al    0.00782  0.00782   1.694  1.256  0.043
    45Al   -0.01233 -0.01233   1.699  1.222  0.092
    46Al    0.00727  0.00727   1.687  1.296  0.009
    47Al    0.02236  0.02236   1.687  1.293 -0.003
    48Al   -0.02372 -0.02372   1.694  1.173  0.157
    49Al   -0.02380 -0.02380   1.694  1.173  0.156
    50Al    0.00891  0.00891   1.694  1.256  0.041
    51Al    0.01145  0.01145   1.689  1.255  0.045
    52Al   -0.03087 -0.03087   1.733  1.141  0.157
    53Al    0.02439  0.02439   1.687  1.294 -0.005
    54Al    0.01735  0.01735   1.682  1.359 -0.058
    55Al    0.04478  0.04478   1.675  1.354 -0.074
    56Al   -0.03366 -0.03366   1.717  1.193  0.123
    57Al    0.01058  0.01058   1.687  1.297  0.006
    58Al    0.01658  0.01658   1.681  1.362 -0.060
    59Al    0.04982  0.04982   1.672  1.359 -0.081
    60Al   -0.00959 -0.00959   1.712  1.178  0.120
    61Al   -0.01052 -0.01052   1.699  1.223  0.089
    62Al   -0.00686 -0.00686   1.694  1.262  0.052
    63Al    0.02658  0.02658   1.678  1.242  0.054
    64Al   -0.02147 -0.02147   1.769  1.035  0.217
    65Al   -0.04163 -0.04163   1.733  1.094  0.215
    66Al    0.05560  0.05560   1.672  1.284 -0.011
    67Al    0.00668  0.00667   1.684  1.302  0.007
    68Al   -0.00490 -0.00490   1.682  1.256  0.067
    69Al   -0.01239 -0.01240   1.714  1.192  0.106
    70Al    0.04526  0.04526   1.671  1.359 -0.075
    71Al   -0.00293 -0.00293   1.680  1.372 -0.049
    72Al    0.00838  0.00837   1.682  1.302  0.007
    73Al   -0.02505 -0.02505   1.711  1.190  0.123
    74Al    0.05512  0.05512   1.664  1.350 -0.069
    75Al    0.03772  0.03773   1.670  1.364 -0.071
    76Al    0.04406  0.04406   1.666  1.288  0.002
    77Al   -0.03387 -0.03387   1.751  1.095  0.189
    78Al   -0.02150 -0.02150   1.714  1.178  0.129
    79Al   -0.01401 -0.01401   1.716  1.185  0.114
    80Al   -0.04378 -0.04378   1.732  1.092  0.221
    81Al   -0.00696 -0.00696   1.795  0.971  0.241
    82Al   -0.03773 -0.03774   1.728  1.096  0.214
    83Al   -0.03176 -0.03180   1.732  1.101  0.199
    84Al   -0.00674 -0.00672   1.768  1.028  0.211
    85Al    0.00104  0.00102   1.694  1.133  0.172
    86Al    0.03963  0.03850   1.684  1.232  0.045
    87Al    0.10213  0.10233   1.679  1.172  0.047
    88Al    0.00887  0.00848   1.721  1.109  0.161
    89Al   -0.01531 -0.01558   1.713  1.180  0.123
    90Al    0.07740  0.07717   1.696  1.203  0.024
    91Al    0.10695  0.10529   1.687  1.187  0.019
    92Al   -0.01993 -0.02034   1.721  1.125  0.174
    93Al   -0.01722 -0.01771   1.731  1.127  0.159
    94Al    0.03906  0.03978   1.715  1.157  0.089
    95Al    0.02665  0.02661   1.708  1.163  0.102
    96Al   -0.01586 -0.01587   1.768  1.030  0.218
    97C     0.15241  0.26044   0.956  2.892  0.000
    98N    -0.41993 -0.59177   1.541  3.879  0.000
    99C     0.18907  0.29992   0.967  2.844  0.000
   100N    -0.32487 -0.43624   1.520  3.805  0.000
   101N    -0.12464 -0.39431   1.393  3.731  0.000
   102H    -0.01515  0.05883   1.015  0.000  0.000
   103H    -0.01007  0.06474   1.010  0.000  0.000
   104H     0.15141  0.34039   0.849  0.000  0.000

Wiberg/Mayer (AO) data.
largest (>0.10) Wiberg bond orders for each atom

 ---------------------------------------------------------------------------
     #   Z sym  total        # sym  WBO       # sym  WBO       # sym  WBO
 ---------------------------------------------------------------------------
     1  13 Al   1.349 --    17 Al   0.422     2 Al   0.380     5 Al   0.358
                            18 Al   0.291
     2  13 Al   1.563 --     1 Al   0.380     3 Al   0.375    19 Al   0.276
                             6 Al   0.260    18 Al   0.250     5 Al   0.247
     3  13 Al   1.554 --     4 Al   0.376     2 Al   0.375    19 Al   0.272
                            20 Al   0.261     6 Al   0.258     7 Al   0.245
     4  13 Al   1.328 --     8 Al   0.427     3 Al   0.376    20 Al   0.358
                             7 Al   0.281
     5  13 Al   1.614 --     1 Al   0.358     9 Al   0.357    21 Al   0.316
                             6 Al   0.261     2 Al   0.247    22 Al   0.216
                            18 Al   0.176
     6  13 Al   1.723 --    10 Al   0.274     7 Al   0.265     9 Al   0.262
                             5 Al   0.261     2 Al   0.260     3 Al   0.258
                            23 Al   0.214    22 Al   0.202    19 Al   0.187
     7  13 Al   1.759 --     4 Al   0.281     6 Al   0.265    10 Al   0.264
                             8 Al   0.256    11 Al   0.254     3 Al   0.245
                            23 Al   0.209    24 Al   0.191    20 Al   0.172
     8  13 Al   1.500 --     4 Al   0.427    12 Al   0.423    24 Al   0.331
                            11 Al   0.258     7 Al   0.256
     9  13 Al   1.613 --     5 Al   0.357    13 Al   0.353    25 Al   0.315
                            10 Al   0.271     6 Al   0.262    22 Al   0.209
                            26 Al   0.203
    10  13 Al   1.761 --    11 Al   0.275     6 Al   0.274    13 Al   0.274
                            14 Al   0.271     9 Al   0.271     7 Al   0.264
                            23 Al   0.212    27 Al   0.206    26 Al   0.192
    11  13 Al   1.770 --    10 Al   0.275    12 Al   0.264    14 Al   0.260
                             8 Al   0.258     7 Al   0.254    15 Al   0.248
                            27 Al   0.204    24 Al   0.192    28 Al   0.185
    12  13 Al   1.533 --    16 Al   0.441     8 Al   0.423    28 Al   0.316
                            11 Al   0.264    15 Al   0.245
    13  13 Al   1.515 --     9 Al   0.353    14 Al   0.347    29 Al   0.345
                            10 Al   0.274    30 Al   0.262    26 Al   0.203
    14  13 Al   1.603 --    15 Al   0.349    13 Al   0.347    10 Al   0.271
                            11 Al   0.260    31 Al   0.254    30 Al   0.253
                            27 Al   0.205
    15  13 Al   1.682 --    16 Al   0.374    14 Al   0.349    32 Al   0.250
                            31 Al   0.249    11 Al   0.248    12 Al   0.245
                            28 Al   0.176
    16  13 Al   1.205 --    12 Al   0.441    32 Al   0.436    15 Al   0.374
    17  13 Al   1.512 --     1 Al   0.422    33 Al   0.421    21 Al   0.345
                            37 Al   0.267    18 Al   0.242
    18  13 Al   1.830 --    34 Al   0.319     1 Al   0.291     2 Al   0.250
                            19 Al   0.245    17 Al   0.242    38 Al   0.218
                            22 Al   0.192     5 Al   0.176    21 Al   0.173
                            37 Al   0.172
    19  13 Al   1.810 --    35 Al   0.331     2 Al   0.276     3 Al   0.272
                            18 Al   0.245    20 Al   0.232    39 Al   0.216
                            38 Al   0.216    23 Al   0.216    22 Al   0.202
                             6 Al   0.187
    20  13 Al   1.776 --     4 Al   0.358    36 Al   0.338    40 Al   0.265
                             3 Al   0.261    24 Al   0.233    19 Al   0.232
                            39 Al   0.203    23 Al   0.199     7 Al   0.172
    21  13 Al   1.612 --    25 Al   0.357    17 Al   0.345     5 Al   0.316
                            41 Al   0.272    37 Al   0.259    22 Al   0.213
                            18 Al   0.173
    22  13 Al   1.895 --    23 Al   0.236    42 Al   0.235    38 Al   0.227
                             5 Al   0.216    21 Al   0.213    26 Al   0.212
                             9 Al   0.209    25 Al   0.206    41 Al   0.203
                            19 Al   0.202     6 Al   0.202    18 Al   0.192
    23  13 Al   1.912 --    43 Al   0.240    27 Al   0.238    42 Al   0.237
                            22 Al   0.236    39 Al   0.230    26 Al   0.222
                            24 Al   0.218    19 Al   0.216     6 Al   0.214
                            10 Al   0.212     7 Al   0.209    20 Al   0.199
    24  13 Al   1.823 --     8 Al   0.331    44 Al   0.281    40 Al   0.273
                            28 Al   0.249    20 Al   0.233    23 Al   0.218
                            43 Al   0.217    27 Al   0.206    11 Al   0.192
                             7 Al   0.191
    25  13 Al   1.598 --    21 Al   0.357    29 Al   0.353     9 Al   0.315
                            41 Al   0.269    45 Al   0.263    22 Al   0.206
                            26 Al   0.192
    26  13 Al   1.881 --    42 Al   0.226    23 Al   0.222    29 Al   0.216
                            27 Al   0.212    22 Al   0.212    46 Al   0.208
                             9 Al   0.203    13 Al   0.203    25 Al   0.192
                            10 Al   0.192    30 Al   0.191    45 Al   0.184
    27  13 Al   1.896 --    23 Al   0.238    43 Al   0.235    47 Al   0.218
                            31 Al   0.213    26 Al   0.212    46 Al   0.212
                            10 Al   0.206    24 Al   0.206    14 Al   0.205
                            30 Al   0.205    11 Al   0.204    28 Al   0.196
    28  13 Al   1.826 --    12 Al   0.316    44 Al   0.270    48 Al   0.259
                            24 Al   0.249    32 Al   0.243    27 Al   0.196
                            47 Al   0.191    11 Al   0.185    15 Al   0.176
                            31 Al   0.175
    29  13 Al   1.418 --    45 Al   0.357    30 Al   0.357    25 Al   0.353
                            13 Al   0.345    26 Al   0.216
    30  13 Al   1.612 --    31 Al   0.360    29 Al   0.357    46 Al   0.336
                            13 Al   0.262    14 Al   0.253    27 Al   0.205
                            26 Al   0.191
    31  13 Al   1.615 --    30 Al   0.360    32 Al   0.348    47 Al   0.338
                            14 Al   0.254    15 Al   0.249    27 Al   0.213
                            28 Al   0.175
    32  13 Al   1.526 --    16 Al   0.436    48 Al   0.411    31 Al   0.348
                            15 Al   0.250    28 Al   0.243
    33  13 Al   1.333 --    17 Al   0.421    49 Al   0.366    34 Al   0.361
                            37 Al   0.288
    34  13 Al   1.621 --    33 Al   0.361    35 Al   0.358    18 Al   0.319
                            50 Al   0.271    49 Al   0.252    38 Al   0.215
                            37 Al   0.166
    35  13 Al   1.604 --    34 Al   0.358    36 Al   0.350    19 Al   0.331
                            50 Al   0.268    51 Al   0.266    39 Al   0.208
                            38 Al   0.205
    36  13 Al   1.492 --    35 Al   0.350    52 Al   0.343    20 Al   0.338
                            51 Al   0.273    40 Al   0.270    39 Al   0.212
    37  13 Al   1.770 --    33 Al   0.288    53 Al   0.277    41 Al   0.271
                            17 Al   0.267    21 Al   0.259    49 Al   0.239
                            38 Al   0.195    18 Al   0.172    34 Al   0.166
    38  13 Al   1.908 --    54 Al   0.237    42 Al   0.233    22 Al   0.227
                            39 Al   0.218    18 Al   0.218    19 Al   0.216
                            34 Al   0.215    53 Al   0.214    50 Al   0.209
                            35 Al   0.205    41 Al   0.201    37 Al   0.195
    39  13 Al   1.899 --    43 Al   0.231    54 Al   0.230    23 Al   0.230
                            55 Al   0.227    42 Al   0.223    38 Al   0.218
                            19 Al   0.216    36 Al   0.212    35 Al   0.208
                            20 Al   0.203    51 Al   0.201    40 Al   0.195
    40  13 Al   1.718 --    24 Al   0.273    52 Al   0.272    44 Al   0.271
                            36 Al   0.270    56 Al   0.266    20 Al   0.265
                            43 Al   0.203    55 Al   0.201    39 Al   0.195
    41  13 Al   1.733 --    57 Al   0.280    53 Al   0.279    21 Al   0.272
                            37 Al   0.271    25 Al   0.269    45 Al   0.256
                            42 Al   0.211    22 Al   0.203    38 Al   0.201
    42  13 Al   1.913 --    58 Al   0.239    23 Al   0.237    54 Al   0.236
                            43 Al   0.236    22 Al   0.235    38 Al   0.233
                            26 Al   0.226    39 Al   0.223    57 Al   0.215
                            41 Al   0.211    46 Al   0.211    45 Al   0.198
    43  13 Al   1.916 --    23 Al   0.240    59 Al   0.237    58 Al   0.237
                            42 Al   0.236    27 Al   0.235    39 Al   0.231
                            55 Al   0.230    24 Al   0.217    47 Al   0.214
                            44 Al   0.213    46 Al   0.205    40 Al   0.203
    44  13 Al   1.714 --    24 Al   0.281    60 Al   0.271    40 Al   0.271
                            28 Al   0.270    56 Al   0.268    48 Al   0.246
                            43 Al   0.213    59 Al   0.210    47 Al   0.181
    45  13 Al   1.668 --    29 Al   0.357    61 Al   0.347    57 Al   0.273
                            25 Al   0.263    41 Al   0.256    46 Al   0.240
                            42 Al   0.198    26 Al   0.184
    46  13 Al   1.806 --    30 Al   0.336    62 Al   0.280    61 Al   0.273
                            47 Al   0.253    45 Al   0.240    58 Al   0.216
                            27 Al   0.212    42 Al   0.211    26 Al   0.208
                            43 Al   0.205
    47  13 Al   1.807 --    31 Al   0.338    62 Al   0.279    63 Al   0.277
                            46 Al   0.253    48 Al   0.228    27 Al   0.218
                            43 Al   0.214    59 Al   0.214    28 Al   0.191
                            44 Al   0.181
    48  13 Al   1.704 --    32 Al   0.411    64 Al   0.366    28 Al   0.259
                            60 Al   0.252    44 Al   0.246    63 Al   0.239
                            47 Al   0.228
    49  13 Al   1.703 --    65 Al   0.411    33 Al   0.366    66 Al   0.259
                            34 Al   0.252    50 Al   0.246    37 Al   0.239
                            53 Al   0.228
    50  13 Al   1.713 --    67 Al   0.282    34 Al   0.271    66 Al   0.270
                            51 Al   0.270    35 Al   0.268    49 Al   0.246
                            54 Al   0.212    38 Al   0.209    53 Al   0.181
    51  13 Al   1.716 --    67 Al   0.274    36 Al   0.273    50 Al   0.270
                            52 Al   0.270    68 Al   0.266    35 Al   0.266
                            54 Al   0.202    39 Al   0.201    55 Al   0.194
    52  13 Al   1.490 --    56 Al   0.350    36 Al   0.343    68 Al   0.340
                            40 Al   0.272    51 Al   0.270    55 Al   0.211
    53  13 Al   1.804 --    69 Al   0.337    41 Al   0.279    37 Al   0.277
                            57 Al   0.252    49 Al   0.228    70 Al   0.219
                            38 Al   0.214    54 Al   0.213    66 Al   0.191
                            50 Al   0.181
    54  13 Al   1.905 --    71 Al   0.241    38 Al   0.237    42 Al   0.236
                            70 Al   0.235    58 Al   0.234    39 Al   0.230
                            55 Al   0.229    67 Al   0.217    53 Al   0.213
                            50 Al   0.212    57 Al   0.204    51 Al   0.202
    55  13 Al   1.890 --    71 Al   0.231    43 Al   0.230    54 Al   0.229
                            39 Al   0.227    58 Al   0.221    72 Al   0.217
                            59 Al   0.216    52 Al   0.211    56 Al   0.206
                            68 Al   0.204    40 Al   0.201    51 Al   0.194
    56  13 Al   1.601 --    60 Al   0.358    52 Al   0.350    72 Al   0.332
                            44 Al   0.268    40 Al   0.266    55 Al   0.206
                            59 Al   0.204
    57  13 Al   1.800 --    73 Al   0.335    41 Al   0.280    45 Al   0.273
                            53 Al   0.252    61 Al   0.239    42 Al   0.215
                            70 Al   0.212    58 Al   0.209    74 Al   0.209
                            54 Al   0.204
    58  13 Al   1.904 --    42 Al   0.239    71 Al   0.238    43 Al   0.237
                            75 Al   0.235    54 Al   0.234    59 Al   0.232
                            74 Al   0.227    55 Al   0.221    46 Al   0.216
                            62 Al   0.210    57 Al   0.209    61 Al   0.196
    59  13 Al   1.902 --    43 Al   0.237    58 Al   0.232    75 Al   0.228
                            76 Al   0.217    72 Al   0.217    55 Al   0.216
                            47 Al   0.214    60 Al   0.214    44 Al   0.210
                            56 Al   0.204    62 Al   0.200    63 Al   0.195
    60  13 Al   1.621 --    64 Al   0.360    56 Al   0.358    76 Al   0.320
                            44 Al   0.271    48 Al   0.252    59 Al   0.214
                            63 Al   0.165
    61  13 Al   1.664 --    77 Al   0.356    45 Al   0.347    46 Al   0.273
                            78 Al   0.263    62 Al   0.256    57 Al   0.239
                            58 Al   0.196    74 Al   0.185
    62  13 Al   1.731 --    46 Al   0.280    47 Al   0.279    79 Al   0.271
                            63 Al   0.270    78 Al   0.269    61 Al   0.256
                            58 Al   0.210    75 Al   0.204    59 Al   0.200
    63  13 Al   1.769 --    64 Al   0.288    47 Al   0.277    62 Al   0.270
                            80 Al   0.266    79 Al   0.259    48 Al   0.239
                            59 Al   0.195    76 Al   0.173    60 Al   0.165
    64  13 Al   1.333 --    80 Al   0.421    48 Al   0.366    60 Al   0.360
                            63 Al   0.288
    65  13 Al   1.527 --    81 Al   0.435    49 Al   0.411    69 Al   0.348
                            85 Al   0.250    66 Al   0.244
    66  13 Al   1.830 --    82 Al   0.316    50 Al   0.270    49 Al   0.259
                            67 Al   0.252    65 Al   0.244    70 Al   0.198
                            53 Al   0.191    86 Al   0.185    85 Al   0.176
                            69 Al   0.175
    67  13 Al   1.837 --    83 Al   0.333    50 Al   0.282    51 Al   0.274
                            66 Al   0.252    68 Al   0.238    71 Al   0.223
                            54 Al   0.217    70 Al   0.210    86 Al   0.195
                            87 Al   0.184
    68  13 Al   1.794 --    84 Al   0.360    52 Al   0.340    51 Al   0.266
                            88 Al   0.262    72 Al   0.238    67 Al   0.238
                            71 Al   0.206    55 Al   0.204    87 Al   0.167
    69  13 Al   1.615 --    73 Al   0.360    65 Al   0.348    53 Al   0.337
                            89 Al   0.256    85 Al   0.248    70 Al   0.215
                            66 Al   0.175
    70  13 Al   1.902 --    71 Al   0.241    54 Al   0.235    53 Al   0.219
                            69 Al   0.215    74 Al   0.214    57 Al   0.212
                            67 Al   0.210    89 Al   0.207    73 Al   0.206
                            86 Al   0.203    90 Al   0.201    66 Al   0.198
    71  13 Al   1.929 --    70 Al   0.241    75 Al   0.241    54 Al   0.241
                            58 Al   0.238    55 Al   0.231    74 Al   0.227
                            67 Al   0.223    72 Al   0.222    90 Al   0.213
                            91 Al   0.207    68 Al   0.206    87 Al   0.201
    72  13 Al   1.826 --    56 Al   0.332    92 Al   0.279    88 Al   0.271
                            76 Al   0.249    68 Al   0.238    71 Al   0.222
                            59 Al   0.217    55 Al   0.217    75 Al   0.206
                            91 Al   0.179
    73  13 Al   1.614 --    69 Al   0.360    77 Al   0.356    57 Al   0.335
                            93 Al   0.262    89 Al   0.255    70 Al   0.206
                            74 Al   0.193
    74  13 Al   1.895 --    58 Al   0.227    71 Al   0.227    77 Al   0.219
                            75 Al   0.217    70 Al   0.214    57 Al   0.209
                            93 Al   0.205    94 Al   0.197    78 Al   0.195
                            73 Al   0.193    90 Al   0.188    61 Al   0.185
    75  13 Al   1.911 --    71 Al   0.241    58 Al   0.235    59 Al   0.228
                            74 Al   0.217    95 Al   0.217    79 Al   0.216
                            78 Al   0.209    72 Al   0.206    94 Al   0.206
                            62 Al   0.204    76 Al   0.196    91 Al   0.194
    76  13 Al   1.842 --    60 Al   0.320    96 Al   0.292    92 Al   0.251
                            72 Al   0.249    80 Al   0.243    59 Al   0.217
                            75 Al   0.196    95 Al   0.176    79 Al   0.174
                            63 Al   0.173
    77  13 Al   1.418 --    73 Al   0.356    61 Al   0.356    78 Al   0.354
                            93 Al   0.347    74 Al   0.219
    78  13 Al   1.599 --    79 Al   0.358    77 Al   0.354    94 Al   0.310
                            62 Al   0.269    61 Al   0.263    75 Al   0.209
                            74 Al   0.195
    79  13 Al   1.616 --    78 Al   0.358    80 Al   0.345    95 Al   0.315
                            62 Al   0.271    63 Al   0.259    75 Al   0.216
                            76 Al   0.174
    80  13 Al   1.512 --    96 Al   0.422    64 Al   0.421    79 Al   0.345
                            63 Al   0.266    76 Al   0.243
    81  13 Al   1.203 --    82 Al   0.440    65 Al   0.435    85 Al   0.373
    82  13 Al   1.528 --    81 Al   0.440    83 Al   0.421    66 Al   0.316
                            86 Al   0.262    85 Al   0.244
    83  13 Al   1.485 --    84 Al   0.424    82 Al   0.421    67 Al   0.333
                            86 Al   0.256    87 Al   0.244
    84  13 Al   1.313 --    83 Al   0.424    88 Al   0.369    68 Al   0.360
                            87 Al   0.269
    85  13 Al   1.679 --    81 Al   0.373    89 Al   0.351    65 Al   0.250
                            69 Al   0.248    86 Al   0.245    82 Al   0.244
                            66 Al   0.176
    86  13 Al   1.786 --    82 Al   0.262    90 Al   0.258    89 Al   0.258
                            83 Al   0.256    85 Al   0.245    87 Al   0.236
                            70 Al   0.203    67 Al   0.195    66 Al   0.185
    87  13 Al   1.777 --    84 Al   0.269    83 Al   0.244    86 Al   0.236
                            90 Al   0.233    91 Al   0.229    88 Al   0.227
                            71 Al   0.201    67 Al   0.184    68 Al   0.167
                            98 N    0.133
    88  13 Al   1.538 --    84 Al   0.369    92 Al   0.368    72 Al   0.271
                            68 Al   0.262    91 Al   0.237    87 Al   0.227
    89  13 Al   1.614 --    85 Al   0.351    93 Al   0.348    90 Al   0.263
                            86 Al   0.258    69 Al   0.256    73 Al   0.255
                            70 Al   0.207
    90  13 Al   1.789 --    93 Al   0.264    89 Al   0.263    86 Al   0.258
                            94 Al   0.243    91 Al   0.237    87 Al   0.233
                            71 Al   0.213    70 Al   0.201    74 Al   0.188
    91  13 Al   1.765 --    92 Al   0.245    95 Al   0.245    90 Al   0.237
                            88 Al   0.237    94 Al   0.232    87 Al   0.229
                            71 Al   0.207    75 Al   0.194    72 Al   0.179
    92  13 Al   1.559 --    96 Al   0.378    88 Al   0.368    72 Al   0.279
                            76 Al   0.251    91 Al   0.245    95 Al   0.244
    93  13 Al   1.520 --    89 Al   0.348    77 Al   0.347    94 Al   0.342
                            90 Al   0.264    73 Al   0.262    74 Al   0.205
    94  13 Al   1.610 --    95 Al   0.347    93 Al   0.342    78 Al   0.310
                            90 Al   0.243    91 Al   0.232    75 Al   0.206
                            74 Al   0.197
    95  13 Al   1.595 --    96 Al   0.355    94 Al   0.347    79 Al   0.315
                            91 Al   0.245    92 Al   0.244    75 Al   0.217
                            76 Al   0.176
    96  13 Al   1.342 --    80 Al   0.422    92 Al   0.378    95 Al   0.355
                            76 Al   0.292
    97   6 C    3.524 --    98 N    1.282   101 N    1.126   102 H    0.903
    98   7 N    2.860 --    97 C    1.282    99 C    1.256    87 Al   0.133
    99   6 C    3.623 --   100 N    1.276    98 N    1.256   103 H    0.895
   100   7 N    2.725 --    99 C    1.276   101 N    1.079
   101   7 N    3.226 --    97 C    1.126   100 N    1.079   104 H    0.861
   102   1 H    1.002 --    97 C    0.903
   103   1 H    1.005 --    99 C    0.895
   104   1 H    0.970 --   101 N    0.861
 ---------------------------------------------------------------------------

Topologies differ in total number of bonds
Writing topology from bond orders to xtbtopo.mol

 dipole moment from electron density (au)
     X       Y       Z   
  -1.5235   1.7733  -2.3541  total (Debye):    8.433


           -------------------------------------------------
          | TOTAL ENERGY             -136.367256120938 Eh   |
          | GRADIENT NORM               0.162437912562 Eh/α |
          | HOMO-LUMO GAP               0.030566172199 eV   |
           -------------------------------------------------

------------------------------------------------------------------------
 * finished run on 2024/10/27 at 19:31:38.745     
------------------------------------------------------------------------
 total:
 * wall-time:     0 d,  0 h,  0 min,  2.674 sec
 *  cpu-time:     0 d,  0 h,  2 min,  5.407 sec
 * ratio c/w:    46.890 speedup
 SCF:
 * wall-time:     0 d,  0 h,  0 min,  2.542 sec
 *  cpu-time:     0 d,  0 h,  2 min,  0.858 sec
 * ratio c/w:    47.537 speedup

normal termination of xtb
----------------------------------------
Initial run completed, starting optimization...
      -----------------------------------------------------------      
     |                   =====================                   |     
     |                           x T B                           |     
     |                   =====================                   |     
     |                         S. Grimme                         |     
     |          Mulliken Center for Theoretical Chemistry        |     
     |                    University of Bonn                     |     
      -----------------------------------------------------------      

   * xtb version 6.7.1 (edcfbbe) compiled by 'albert@albert-system' on 2024-07-22

   xtb is free software: you can redistribute it and/or modify it under
   the terms of the GNU Lesser General Public License as published by
   the Free Software Foundation, either version 3 of the License, or
   (at your option) any later version.
   
   xtb is distributed in the hope that it will be useful,
   but WITHOUT ANY WARRANTY; without even the implied warranty of
   MERCHANTABILITY or FITNESS FOR A PARTICULAR PURPOSE.  See the
   GNU Lesser General Public License for more details.
   
   Cite this work as:
   * C. Bannwarth, E. Caldeweyher, S. Ehlert, A. Hansen, P. Pracht,
     J. Seibert, S. Spicher, S. Grimme, WIREs Comput. Mol. Sci., 2020, 11,
     e01493. DOI: 10.1002/wcms.1493
   
   for GFN2-xTB:
   * C. Bannwarth, S. Ehlert and S. Grimme., J. Chem. Theory Comput., 2019,
     15, 1652-1671. DOI: 10.1021/acs.jctc.8b01176
   for GFN1-xTB:
   * S. Grimme, C. Bannwarth, P. Shushkov, J. Chem. Theory Comput., 2017,
     13, 1989-2009. DOI: 10.1021/acs.jctc.7b00118
   for GFN0-xTB:
   * P. Pracht, E. Caldeweyher, S. Ehlert, S. Grimme, ChemRxiv, 2019, preprint.
     DOI: 10.26434/chemrxiv.8326202.v1
   for GFN-FF:
   * S. Spicher and S. Grimme, Angew. Chem. Int. Ed., 2020, 59, 15665-15673.
     DOI: 10.1002/anie.202004239
   
   for ALPB and GBSA implicit solvation:
   * S. Ehlert, M. Stahn, S. Spicher, S. Grimme, J. Chem. Theory Comput.,
     2021, 17, 4250-4261. DOI: 10.1021/acs.jctc.1c00471
   
   for ddCOSMO and CPCM-X implicit solvation:
   * M. Stahn, S. Ehlert, S. Grimme, J. Phys. Chem. A,
     2023, XX, XXXX-XXXX. DOI: 10.1021/acs.jpca.3c04382
   
   for DFT-D4:
   * E. Caldeweyher, C. Bannwarth and S. Grimme, J. Chem. Phys., 2017,
     147, 034112. DOI: 10.1063/1.4993215
   * E. Caldeweyher, S. Ehlert, A. Hansen, H. Neugebauer, S. Spicher,
     C. Bannwarth and S. Grimme, J. Chem. Phys., 2019, 150, 154122.
     DOI: 10.1063/1.5090222
   * E. Caldeweyher, J.-M. Mewes, S. Ehlert and S. Grimme, Phys. Chem. Chem. Phys.
     2020, 22, 8499-8512. DOI: 10.1039/D0CP00502A
   
   for sTDA-xTB:
   * S. Grimme and C. Bannwarth, J. Chem. Phys., 2016, 145, 054103.
     DOI: 10.1063/1.4959605
   
   in the mass-spec context:
   * V. Asgeirsson, C. Bauer and S. Grimme, Chem. Sci., 2017, 8, 4879.
     DOI: 10.1039/c7sc00601b
   * J. Koopman and S. Grimme, ACS Omega 2019, 4, 12, 15120-15133.
     DOI: 10.1021/acsomega.9b02011
   
   for metadynamics refer to:
   * S. Grimme, J. Chem. Theory Comput., 2019, 155, 2847-2862
     DOI: 10.1021/acs.jctc.9b00143
   
   for SPH calculations refer to:
   * S. Spicher and S. Grimme, J. Chem. Theory Comput., 2021, 17, 1701-1714
     DOI: 10.1021/acs.jctc.0c01306
   
   for ONIOM refer to:
   * C. Plett, A. Katbashev, S. Ehlert, S. Grimme, M. Bursch,
     Phys. Chem. Chem. Phys., 2023, 25, 17860-17868. DOI: 10.1039/D3CP02178E
   
   for DIPRO refer to:
   * J. Kohn, N. Gildemeister, S. Grimme, D. Fazzi, A. Hansen,
     J. Chem. Phys., 2023, just accepted.
   
   for PTB refer to:
   * S. Grimme, M. Mueller, A. Hansen, J. Chem. Phys., 2023, 158, 124111.
     DOI: 10.1063/5.0137838
   
   with help from (in alphabetical order)
   P. Atkinson, C. Bannwarth, F. Bohle, G. Brandenburg, E. Caldeweyher
   M. Checinski, S. Dohm, S. Ehlert, S. Ehrlich, I. Gerasimov, C. Hölzer
   A. Katbashev, J. Kohn, J. Koopman, C. Lavigne, S. Lehtola, F. März, M. Müller,
   F. Musil, H. Neugebauer, J. Pisarek, C. Plett, P. Pracht, F. Pultar,
   J. Seibert, P. Shushkov, S. Spicher, M. Stahn, M. Steiner, T. Strunk,
   J. Stückrath, T. Rose, and J. Unsleber
   
 * started run on 2024/10/27 at 19:31:38.785     
   ID    Z sym.   atoms
    1   13 Al     1-96
    2    6 C      97, 99
    3    7 N      98, 100, 101
    4    1 H      102-104

           -------------------------------------------------
          |                Calculation Setup                |
           -------------------------------------------------

          program call               : xtb input.xyz --opt crude --gfn 1 --etemp 10000.0 --input .xcontrol --cycles 1000
          coordinate file            : input.xyz
          omp threads                :                    48


molecular fragmentation (1/2 indicates fragments):
111111111111111111111111111111111111111111111111111111111111111111111111
11111111111111122222222222222222
# atoms in fragment 1/2:    87    17
 fragment masses (1/2) :     2347.39      311.90
CMA distance (Bohr)    :  13.756
constraining FC (au)   :  0.0500

           -------------------------------------------------
          |                 G F N 1 - x T B                 |
           -------------------------------------------------

        Reference                      10.1021/acs.jctc.7b00118
      * Hamiltonian:
        H0-scaling (s, p, d)           1.850000    2.250000    2.000000
        zeta-weighting                 0.000000
      * Dispersion:
        s8                             2.400000
        a1                             0.630000
        a2                             5.000000
        s9                             0.000000
      * Repulsion:
        kExp                           1.500000
        rExp                           1.000000
      * Coulomb:
        alpha                          2.000000
        third order                    atomic
        anisotropic                    false
      * Halogen bond correction:
        rad-scale                      1.300000
        damping                        0.440000

q/qsh data taken from xtbrestart

          ...................................................
          :                      SETUP                      :
          :.................................................:
          :  # basis functions                 986          :
          :  # atomic orbitals                 890          :
          :  # shells                          304          :
          :  # electrons                       314          :
          :  # halogen bonds                     0          :
          :  max. iterations                   250          :
          :  Hamiltonian                  GFN1-xTB          :
          :  restarted?                       true          :
          :  GBSA solvation                  false          :
          :  PC potential                    false          :
          :  electronic temp.        10000.0000000     K    :
          :  accuracy                    1.0000000          :
          :  -> integral cutoff          0.2500000E+02      :
          :  -> integral neglect         0.1000000E-07      :
          :  -> SCF convergence          0.1000000E-05 Eh   :
          :  -> wf. convergence          0.2000000E-04 e    :
          :  Broyden damping             0.4000000          :
          :  net charge                          0          :
          :  unpaired electrons                  0          :
          ...................................................

 iter      E             dE          RMSdq      gap      omega  full diag
   1   -136.3567287 -0.136357E+03  0.282E-05    0.03       0.0  T
   2   -136.3567286  0.404865E-07  0.158E-04    0.03      62.1  T
   3   -136.3567287 -0.372790E-07  0.520E-05    0.03     188.7  T

   *** convergence criteria satisfied after 3 iterations ***

         #    Occupation            Energy/Eh            Energy/eV
      -------------------------------------------------------------
         1        2.0000           -0.7735734             -21.0500
       ...           ...                  ...                  ...
       151        1.1243           -0.2371134              -6.4522
       152        1.1123           -0.2363406              -6.4312
       153        1.0971           -0.2353659              -6.4046
       154        1.0853           -0.2346151              -6.3842
       155        1.0403           -0.2317515              -6.3063
       156        1.0296           -0.2310761              -6.2879
       157        0.9732           -0.2275036              -6.1907 (HOMO)
       158        0.9555           -0.2263804              -6.1601 (LUMO)
       159        0.9094           -0.2234450              -6.0802
       160        0.9015           -0.2229403              -6.0665
       161        0.8749           -0.2212359              -6.0201
       162        0.8525           -0.2197901              -5.9808
       ...           ...                  ...                  ...
       890                         34.6454770             942.7514
      -------------------------------------------------------------
                  HL-Gap            0.0011232 Eh            0.0306 eV
             Fermi-level           -0.2291986 Eh           -6.2368 eV

 SCC (total)                   0 d,  0 h,  0 min,  0.498 sec
 SCC setup                      ...        0 min,  0.003 sec (  0.588%)
 Dispersion                     ...        0 min,  0.003 sec (  0.592%)
 classical contributions        ...        0 min,  0.000 sec (  0.092%)
 integral evaluation            ...        0 min,  0.105 sec ( 21.020%)
 iterations                     ...        0 min,  0.311 sec ( 62.447%)
 molecular gradient             ...        0 min,  0.062 sec ( 12.497%)
 printout                       ...        0 min,  0.014 sec (  2.738%)

         :::::::::::::::::::::::::::::::::::::::::::::::::::::
         ::                     SUMMARY                     ::
         :::::::::::::::::::::::::::::::::::::::::::::::::::::
         :: total energy            -136.367256124731 Eh    ::
         :: gradient norm              0.162437704335 Eh/a0 ::
         :: HOMO-LUMO gap              0.030565070288 eV    ::
         ::.................................................::
         :: SCC energy              -136.356728668868 Eh    ::
         :: -> electrostatic           0.052611336594 Eh    ::
         :: repulsion energy           0.311314863036 Eh    ::
         :: dispersion energy         -0.321842318898 Eh    ::
         :: halogen bond corr.         0.000000000000 Eh    ::
         :: add. restraining           0.000000000000 Eh    ::
         :: total charge              -0.000000000000 e     ::
         :::::::::::::::::::::::::::::::::::::::::::::::::::::

      ----------------------------------------------------------- 
     |                   =====================                   |
     |                        A N C O P T                        |
     |                   =====================                   |
     |               Approximate Normal Coordinate               |
     |                Rational Function Optimizer                |
      ----------------------------------------------------------- 
      ----------------------------------------------------------- 
     |                   =====================                   |
     |                        A N C O P T                        |
     |                   =====================                   |
     |               Approximate Normal Coordinate               |
     |                Rational Function Optimizer                |
      ----------------------------------------------------------- 

          ...................................................
          :                      SETUP                      :
          :.................................................:
          :   optimization level             crude          :
          :   max. optcycles                  1000          :
          :   ANC micro-cycles                  20          :
          :   degrees of freedom               306          :
          :.................................................:
          :   RF solver                   davidson          :
          :   write xtbopt.log                true          :
          :   linear?                        false          :
          :   energy convergence         0.5000000E-03 Eh   :
          :   grad. convergence          0.1000000E-01 Eh/α :
          :   maxmium RF displ.          1.0000000          :
          :   Hlow (freq-cutoff)         0.1000000E-01      :
          :   Hmax (freq-cutoff)         5.0000000          :
          :   S6 in model hess.         20.0000000          :
          ...................................................

generating ANC from exact Hessian ...
Using Lindh-Hessian (1995)
 Shifting diagonal of input Hessian by   9.690280134955466E-003
 Lowest  eigenvalues of input Hessian
    0.000000    0.000000    0.000000    0.000000    0.000000    0.010000
    0.010029    0.010099    0.000000    0.010199    0.010388    0.010463
    0.010575    0.010656    0.010773    0.010800    0.010816    0.010868
 Highest eigenvalues
    1.050123    1.523874    1.777605    1.855821    2.112730    2.117169
 

........................................................................
.............................. CYCLE    1 ..............................
........................................................................

 iter      E             dE          RMSdq      gap      omega  full diag
   1   -136.3567287 -0.136357E+03  0.738E-06    0.03       0.0  T
   2   -136.3567287  0.157402E-08  0.366E-05    0.03     268.3  T
   3   -136.3567287 -0.131988E-08  0.136E-05    0.03     723.0  T
     SCC iter.                  ...        0 min,  0.301 sec
     gradient                   ...        0 min,  0.061 sec
 * total energy  :  -136.3672561 Eh     change       -0.3582784E-08 Eh
   gradient norm :     0.1624067 Eh/α   predicted     0.0000000E+00 (-100.00%)
   displ. norm   :     0.9262227 α      lambda       -0.1291267E+00
   maximum displ.:     0.2765665 α      in ANC's #37, #54, #31, ...

........................................................................
.............................. CYCLE    2 ..............................
........................................................................

 iter      E             dE          RMSdq      gap      omega  full diag
   1   -136.4361004 -0.136436E+03  0.191E-01    0.03       0.0  T
   2   -136.4143135  0.217868E-01  0.234E-01    0.03       1.0  T
   3   -136.4060637  0.824982E-02  0.202E-01    0.03       1.0  T
   4   -136.3065215  0.995422E-01  0.312E-01    0.04       1.0  T
   5   -136.3245495 -0.180279E-01  0.279E-01    0.04       1.0  T
   6   -136.4295605 -0.105011E+00  0.942E-02    0.03       1.0  T
   7   -136.4298846 -0.324069E-03  0.902E-02    0.03       1.0  T
   8   -136.4359030 -0.601846E-02  0.493E-02    0.03       1.0  T
   9   -136.4387924 -0.288933E-02  0.212E-02    0.03       1.0  T
  10   -136.4391879 -0.395495E-03  0.133E-02    0.03       1.0  T
  11   -136.4393552 -0.167315E-03  0.229E-03    0.03       4.3  T
  12   -136.4393558 -0.642955E-06  0.178E-03    0.03       5.5  T
  13   -136.4393575 -0.164555E-05  0.825E-04    0.03      11.9  T
  14   -136.4393579 -0.439452E-06  0.363E-04    0.03      27.0  T
  15   -136.4393580 -0.878351E-07  0.239E-04    0.03      41.0  T
  16   -136.4393580 -0.246115E-07  0.100E-04    0.03      97.9  T
  17   -136.4393580 -0.292238E-08  0.590E-05    0.03     166.3  T
     SCC iter.                  ...        0 min,  1.776 sec
     gradient                   ...        0 min,  0.060 sec
 * total energy  :  -136.4793024 Eh     change       -0.1120463E+00 Eh
   gradient norm :     0.1187011 Eh/α   predicted    -0.1199535E+00 (   7.06%)
   displ. norm   :     0.9236871 α      lambda       -0.1018544E+00
   maximum displ.:     0.3170733 α      in ANC's #37, #29, #31, ...

........................................................................
.............................. CYCLE    3 ..............................
........................................................................

 iter      E             dE          RMSdq      gap      omega  full diag
   1   -136.5043515 -0.136504E+03  0.189E-01    0.04       0.0  T
   2   -136.4781822  0.261693E-01  0.245E-01    0.02       1.0  T
   3   -136.4740837  0.409849E-02  0.202E-01    0.04       1.0  T
   4   -136.3703756  0.103708E+00  0.311E-01    0.03       1.0  T
   5   -136.3957644 -0.253888E-01  0.274E-01    0.05       1.0  T
   6   -136.5022537 -0.106489E+00  0.764E-02    0.03       1.0  T
   7   -136.5009946  0.125912E-02  0.808E-02    0.03       1.0  T
   8   -136.5055102 -0.451557E-02  0.418E-02    0.03       1.0  T
   9   -136.5072243 -0.171409E-02  0.228E-02    0.03       1.0  T
  10   -136.5077041 -0.479859E-03  0.135E-02    0.03       1.0  T
  11   -136.5078910 -0.186847E-03  0.258E-03    0.03       3.8  T
  12   -136.5078935 -0.254044E-05  0.164E-03    0.03       6.0  T
  13   -136.5078947 -0.117168E-05  0.871E-04    0.03      11.3  T
  14   -136.5078952 -0.495970E-06  0.393E-04    0.03      25.0  T
  15   -136.5078953 -0.134774E-06  0.194E-04    0.03      50.6  T
  16   -136.5078953 -0.135099E-07  0.799E-05    0.03     122.7  T
     SCC iter.                  ...        0 min,  1.688 sec
     gradient                   ...        0 min,  0.059 sec
 * total energy  :  -136.5712851 Eh     change       -0.9198268E-01 Eh
   gradient norm :     0.0915515 Eh/α   predicted    -0.9437819E-01 (   2.60%)
   displ. norm   :     0.9044690 α      lambda       -0.8227424E-01
   maximum displ.:     0.3090198 α      in ANC's #37, #29, #31, ...

........................................................................
.............................. CYCLE    4 ..............................
........................................................................

 iter      E             dE          RMSdq      gap      omega  full diag
   1   -136.5674901 -0.136567E+03  0.168E-01    0.05       0.0  T
   2   -136.5331702  0.343199E-01  0.239E-01    0.04       1.0  T
   3   -136.5147351  0.184352E-01  0.211E-01    0.03       1.0  T
   4   -136.3111217  0.203613E+00  0.396E-01    0.08       1.0  T
   5   -136.5403891 -0.229267E+00  0.176E-01    0.04       1.0  T
   6   -136.5644898 -0.241007E-01  0.686E-02    0.05       1.0  T
   7   -136.5601745  0.431532E-02  0.830E-02    0.04       1.0  T
   8   -136.5681698 -0.799526E-02  0.356E-02    0.04       1.0  T
   9   -136.5695723 -0.140256E-02  0.107E-02    0.04       1.0  T
  10   -136.5696391 -0.667818E-04  0.756E-03    0.04       1.3  T
  11   -136.5696854 -0.463037E-04  0.161E-03    0.04       6.1  T
  12   -136.5696863 -0.893285E-06  0.863E-04    0.04      11.4  T
  13   -136.5696866 -0.271649E-06  0.473E-04    0.04      20.7  T
  14   -136.5696867 -0.104589E-06  0.235E-04    0.04      41.7  T
  15   -136.5696867 -0.483141E-08  0.219E-04    0.04      44.7  T
  16   -136.5696867 -0.263460E-07  0.717E-05    0.04     136.8  T
  17   -136.5696867 -0.146733E-08  0.432E-05    0.04     227.1  T
     SCC iter.                  ...        0 min,  1.812 sec
     gradient                   ...        0 min,  0.060 sec
 * total energy  :  -136.6470920 Eh     change       -0.7580697E-01 Eh
   gradient norm :     0.0778649 Eh/α   predicted    -0.7479014E-01 (  -1.34%)
   displ. norm   :     0.9091231 α      lambda       -0.7025870E-01
   maximum displ.:     0.3039192 α      in ANC's #37, #31, #29, ...

........................................................................
.............................. CYCLE    5 ..............................
........................................................................

 iter      E             dE          RMSdq      gap      omega  full diag
   1   -136.6234959 -0.136623E+03  0.158E-01    0.05       0.0  T
   2   -136.5658884  0.576075E-01  0.257E-01    0.05       1.0  T
   3   -136.5477079  0.181805E-01  0.230E-01    0.04       1.0  T
   4   -136.4476536  0.100054E+00  0.346E-01    0.06       1.0  T
   5   -136.6123135 -0.164660E+00  0.134E-01    0.04       1.0  T
   6   -136.6194040 -0.709051E-02  0.716E-02    0.05       1.0  T
   7   -136.6213561 -0.195212E-02  0.553E-02    0.05       1.0  T
   8   -136.6244663 -0.311015E-02  0.315E-02    0.05       1.0  T
   9   -136.6255403 -0.107400E-02  0.832E-03    0.05       1.2  T
  10   -136.6255843 -0.440746E-04  0.498E-03    0.05       2.0  T
  11   -136.6256034 -0.190309E-04  0.133E-03    0.05       7.4  T
  12   -136.6256040 -0.675544E-06  0.716E-04    0.05      13.7  T
  13   -136.6256043 -0.213774E-06  0.342E-04    0.05      28.6  T
  14   -136.6256043 -0.238573E-07  0.247E-04    0.05      39.6  T
  15   -136.6256043 -0.172366E-07  0.184E-04    0.05      53.4  T
  16   -136.6256043 -0.157127E-07  0.716E-05    0.05     137.0  T
     SCC iter.                  ...        0 min,  1.698 sec
     gradient                   ...        0 min,  0.060 sec
 * total energy  :  -136.7120593 Eh     change       -0.6496729E-01 Eh
   gradient norm :     0.0670224 Eh/α   predicted    -0.6416392E-01 (  -1.24%)
   displ. norm   :     0.9132251 α      lambda       -0.6029024E-01
   maximum displ.:     0.3009161 α      in ANC's #37, #31, #54, ...

........................................................................
.............................. CYCLE    6 ..............................
........................................................................

 iter      E             dE          RMSdq      gap      omega  full diag
   1   -136.6729233 -0.136673E+03  0.152E-01    0.04       0.0  T
   2   -136.6132931  0.596302E-01  0.253E-01    0.04       1.0  T
   3   -136.5958848  0.174083E-01  0.229E-01    0.04       1.0  T
   4   -136.5320047  0.638801E-01  0.317E-01    0.04       1.0  T
   5   -136.6640304 -0.132026E+00  0.125E-01    0.04       1.0  T
   6   -136.6715214 -0.749097E-02  0.562E-02    0.04       1.0  T
   7   -136.6705818  0.939567E-03  0.571E-02    0.04       1.0  T
   8   -136.6738280 -0.324620E-02  0.298E-02    0.04       1.0  T
   9   -136.6748551 -0.102707E-02  0.817E-03    0.04       1.2  T
  10   -136.6748997 -0.446617E-04  0.509E-03    0.04       1.9  T
  11   -136.6749203 -0.205254E-04  0.119E-03    0.04       8.2  T
  12   -136.6749208 -0.520412E-06  0.710E-04    0.04      13.8  T
  13   -136.6749210 -0.207168E-06  0.338E-04    0.04      29.0  T
  14   -136.6749210 -0.267158E-07  0.237E-04    0.04      41.4  T
  15   -136.6749210 -0.162989E-07  0.174E-04    0.04      56.5  T
  16   -136.6749211 -0.137164E-07  0.700E-05    0.04     140.0  T
     SCC iter.                  ...        0 min,  1.709 sec
     gradient                   ...        0 min,  0.060 sec
 * total energy  :  -136.7680143 Eh     change       -0.5595501E-01 Eh
   gradient norm :     0.0583145 Eh/α   predicted    -0.5528557E-01 (  -1.20%)
   displ. norm   :     0.9184922 α      lambda       -0.5228145E-01
   maximum displ.:     0.2950750 α      in ANC's #37, #31, #54, ...

........................................................................
.............................. CYCLE    7 ..............................
........................................................................

 iter      E             dE          RMSdq      gap      omega  full diag
   1   -136.7156673 -0.136716E+03  0.147E-01    0.03       0.0  T
   2   -136.6747814  0.408859E-01  0.219E-01    0.03       1.0  T
   3   -136.6218299  0.529515E-01  0.250E-01    0.04       1.0  T
   4   -136.5908991  0.309309E-01  0.296E-01    0.03       1.0  T
   5   -136.7055980 -0.114699E+00  0.127E-01    0.03       1.0  T
   6   -136.7161260 -0.105280E-01  0.408E-02    0.03       1.0  T
   7   -136.7143976  0.172838E-02  0.535E-02    0.03       1.0  T
   8   -136.7170873 -0.268966E-02  0.133E-02    0.03       1.0  T
   9   -136.7170396  0.476386E-04  0.134E-02    0.03       1.0  T
  10   -136.7172430 -0.203398E-03  0.638E-03    0.03       1.5  T
  11   -136.7172866 -0.435701E-04  0.129E-03    0.03       7.6  T
  12   -136.7172875 -0.867375E-06  0.689E-04    0.03      14.2  T
  13   -136.7172877 -0.188563E-06  0.305E-04    0.03      32.2  T
  14   -136.7172877 -0.258334E-07  0.191E-04    0.03      51.2  T
  15   -136.7172877 -0.129611E-07  0.796E-05    0.03     123.1  T
     SCC iter.                  ...        0 min,  2.183 sec
     gradient                   ...        0 min,  0.081 sec
 * total energy  :  -136.8168418 Eh     change       -0.4882741E-01 Eh
   gradient norm :     0.0526066 Eh/α   predicted    -0.4819389E-01 (  -1.30%)
   displ. norm   :     0.9262656 α      lambda       -0.4640741E-01
   maximum displ.:     0.2893187 α      in ANC's #37, #31, #54, ...

........................................................................
.............................. CYCLE    8 ..............................
........................................................................

 iter      E             dE          RMSdq      gap      omega  full diag
   1   -136.7509997 -0.136751E+03  0.150E-01    0.02       0.0  T
   2   -136.7354675  0.155322E-01  0.180E-01    0.02       1.0  T
   3   -136.6941101  0.413574E-01  0.216E-01    0.03       1.0  T
   4   -136.6158112  0.782989E-01  0.297E-01    0.03       1.0  T
   5   -136.7299239 -0.114113E+00  0.155E-01    0.03       1.0  T
   6   -136.7446687 -0.147449E-01  0.818E-02    0.02       1.0  T
   7   -136.7348688  0.979993E-02  0.110E-01    0.03       1.0  T
   8   -136.7524613 -0.175925E-01  0.201E-02    0.02       1.0  T
   9   -136.7527051 -0.243790E-03  0.112E-02    0.02       1.0  T
  10   -136.7527857 -0.806263E-04  0.485E-03    0.02       2.0  T
  11   -136.7528005 -0.147155E-04  0.286E-03    0.02       3.4  T
  12   -136.7528078 -0.730392E-05  0.760E-04    0.02      12.9  T
  13   -136.7528080 -0.267088E-06  0.280E-04    0.02      35.0  T
  14   -136.7528080  0.245521E-07  0.290E-04    0.02      33.8  T
  15   -136.7528081 -0.400280E-07  0.169E-04    0.02      58.1  T
  16   -136.7528081 -0.140728E-07  0.717E-05    0.02     136.7  T
     SCC iter.                  ...        0 min, 18.555 sec
     gradient                   ...        0 min,  0.101 sec
 * total energy  :  -136.8606326 Eh     change       -0.4379083E-01 Eh
   gradient norm :     0.0527223 Eh/α   predicted    -0.4311176E-01 (  -1.55%)
   displ. norm   :     0.9330059 α      lambda       -0.4265610E-01
   maximum displ.:     0.2853911 α      in ANC's #37, #31, #54, ...

........................................................................
.............................. CYCLE    9 ..............................
........................................................................

 iter      E             dE          RMSdq      gap      omega  full diag
   1   -136.7778636 -0.136778E+03  0.167E-01    0.01       0.0  T
   2   -136.7448064  0.330572E-01  0.237E-01    0.02       1.0  T
   3   -136.6937288  0.510775E-01  0.250E-01    0.01       1.0  T
   4   -136.6915849  0.214389E-02  0.251E-01    0.02       1.0  T
   5   -136.7629864 -0.714015E-01  0.146E-01    0.01       1.0  T
   6   -136.7539003  0.908609E-02  0.141E-01    0.03       1.0  T
   7   -136.7666703 -0.127699E-01  0.108E-01    0.01       1.0  T
   8   -136.7811982 -0.145279E-01  0.299E-02    0.02       1.0  T
   9   -136.7815938 -0.395557E-03  0.222E-02    0.02       1.0  T
  10   -136.7820548 -0.461032E-03  0.491E-03    0.02       2.0  T
  11   -136.7820629 -0.810868E-05  0.328E-03    0.02       3.0  T
  12   -136.7820701 -0.724218E-05  0.126E-03    0.02       7.8  T
  13   -136.7820708 -0.686237E-06  0.597E-04    0.02      16.4  T
  14   -136.7820709 -0.103796E-06  0.426E-04    0.02      23.0  T
  15   -136.7820710 -0.105785E-06  0.161E-04    0.02      60.8  T
  16   -136.7820710 -0.689113E-08  0.112E-04    0.02      87.6  T
     SCC iter.                  ...        0 min, 18.457 sec
     gradient                   ...        0 min,  0.127 sec
 * total energy  :  -136.9005247 Eh     change       -0.3989209E-01 Eh
   gradient norm :     0.0556225 Eh/α   predicted    -0.3989414E-01 (   0.01%)
   displ. norm   :     0.9172950 α      lambda       -0.3746499E-01
   maximum displ.:     0.2839229 α      in ANC's #37, #31, #54, ...

........................................................................
.............................. CYCLE   10 ..............................
........................................................................

 iter      E             dE          RMSdq      gap      omega  full diag
   1   -136.8027559 -0.136803E+03  0.166E-01    0.04       0.0  T
   2   -136.7350046  0.677512E-01  0.289E-01    0.03       1.0  T
   3   -136.6564619  0.785427E-01  0.313E-01    0.03       1.0  T
   4   -136.7614290 -0.104967E+00  0.190E-01    0.04       1.0  T
   5   -136.7904755 -0.290465E-01  0.145E-01    0.04       1.0  T
   6   -136.7790691  0.114064E-01  0.148E-01    0.06       1.0  T
   7   -136.7963048 -0.172357E-01  0.972E-02    0.03       1.0  T
   8   -136.8051748 -0.887006E-02  0.528E-02    0.04       1.0  T
   9   -136.8079486 -0.277375E-02  0.168E-02    0.04       1.0  T
  10   -136.8081739 -0.225356E-03  0.534E-03    0.04       1.8  T
  11   -136.8081860 -0.120923E-04  0.295E-03    0.04       3.3  T
  12   -136.8081915 -0.545495E-05  0.115E-03    0.04       8.5  T
  13   -136.8081920 -0.526287E-06  0.556E-04    0.04      17.6  T
  14   -136.8081921 -0.136819E-06  0.324E-04    0.04      30.3  T
  15   -136.8081922 -0.588061E-07  0.176E-04    0.04      55.8  T
  16   -136.8081922 -0.132057E-07  0.118E-04    0.04      83.0  T
     SCC iter.                  ...        0 min, 11.440 sec
     gradient                   ...        0 min,  0.178 sec
 * total energy  :  -136.9339999 Eh     change       -0.3347525E-01 Eh
   gradient norm :     0.0449883 Eh/α   predicted    -0.3449466E-01 (   3.05%)
   displ. norm   :     0.8886049 α      lambda       -0.2983571E-01
   maximum displ.:     0.2704317 α      in ANC's #37, #31, #54, ...

........................................................................
.............................. CYCLE   11 ..............................
........................................................................

 iter      E             dE          RMSdq      gap      omega  full diag
   1   -136.8326639 -0.136833E+03  0.126E-01    0.07       0.0  T
   2   -136.8210392  0.116248E-01  0.155E-01    0.06       1.0  T
   3   -136.7984891  0.225501E-01  0.169E-01    0.07       1.0  T
   4   -136.7563668  0.421223E-01  0.232E-01    0.06       1.0  T
   5   -136.8182266 -0.618598E-01  0.126E-01    0.06       1.0  T
   6   -136.8234357 -0.520911E-02  0.904E-02    0.07       1.0  T
   7   -136.8263364 -0.290071E-02  0.765E-02    0.06       1.0  T
   8   -136.8326851 -0.634870E-02  0.368E-02    0.07       1.0  T
   9   -136.8340826 -0.139745E-02  0.127E-02    0.06       1.0  T
  10   -136.8342058 -0.123204E-03  0.550E-03    0.07       1.8  T
  11   -136.8342229 -0.170732E-04  0.271E-03    0.07       3.6  T
  12   -136.8342277 -0.484923E-05  0.999E-04    0.07       9.8  T
  13   -136.8342280 -0.339141E-06  0.466E-04    0.07      21.0  T
  14   -136.8342281 -0.881229E-07  0.337E-04    0.07      29.1  T
  15   -136.8342282 -0.715530E-07  0.128E-04    0.07      76.6  T
  16   -136.8342282 -0.373259E-08  0.904E-05    0.07     108.4  T
     SCC iter.                  ...        0 min, 14.651 sec
     gradient                   ...        0 min,  0.150 sec
 * total energy  :  -136.9614212 Eh     change       -0.2742127E-01 Eh
   gradient norm :     0.0385910 Eh/α   predicted    -0.2669728E-01 (  -2.64%)
   displ. norm   :     0.9391424 α      lambda       -0.2827549E-01
   maximum displ.:     0.2760369 α      in ANC's #37, #31, #54, ...

........................................................................
.............................. CYCLE   12 ..............................
........................................................................

 iter      E             dE          RMSdq      gap      omega  full diag
   1   -136.8508454 -0.136851E+03  0.121E-01    0.07       0.0  T
   2   -136.8263750  0.244705E-01  0.153E-01    0.07       1.0  T
   3   -136.7130089  0.113366E+00  0.296E-01    0.06       1.0  T
   4   -136.8254498 -0.112441E+00  0.163E-01    0.08       1.0  T
   5   -136.8426398 -0.171900E-01  0.103E-01    0.07       1.0  T
   6   -136.8487446 -0.610480E-02  0.541E-02    0.07       1.0  T
   7   -136.8496124 -0.867814E-03  0.427E-02    0.07       1.0  T
   8   -136.8507953 -0.118291E-02  0.234E-02    0.07       1.0  T
   9   -136.8513840 -0.588733E-03  0.110E-02    0.07       1.0  T
  10   -136.8515192 -0.135192E-03  0.401E-03    0.07       2.4  T
  11   -136.8515291 -0.984640E-05  0.165E-03    0.07       6.0  T
  12   -136.8515305 -0.140718E-05  0.791E-04    0.07      12.4  T
  13   -136.8515308 -0.307893E-06  0.327E-04    0.07      30.0  T
  14   -136.8515308 -0.446488E-07  0.140E-04    0.07      70.0  T
  15   -136.8515308 -0.575525E-08  0.716E-05    0.07     137.0  T
     SCC iter.                  ...        0 min, 14.251 sec
     gradient                   ...        0 min,  0.150 sec
 * total energy  :  -136.9884755 Eh     change       -0.2705427E-01 Eh
   gradient norm :     0.0438825 Eh/α   predicted    -0.2660714E-01 (  -1.65%)
   displ. norm   :     0.9499709 α      lambda       -0.2928388E-01
   maximum displ.:     0.2830081 α      in ANC's #37, #31, #54, ...

........................................................................
.............................. CYCLE   13 ..............................
........................................................................

 iter      E             dE          RMSdq      gap      omega  full diag
   1   -136.8751611 -0.136875E+03  0.125E-01    0.06       0.0  T
   2   -136.8271835  0.479776E-01  0.199E-01    0.08       1.0  T
   3   -136.7796932  0.474903E-01  0.250E-01    0.06       1.0  T
   4   -136.8403232 -0.606300E-01  0.193E-01    0.06       1.0  T
   5   -136.8707196 -0.303964E-01  0.841E-02    0.06       1.0  T
   6   -136.8634373  0.728230E-02  0.971E-02    0.07       1.0  T
   7   -136.8745456 -0.111083E-01  0.387E-02    0.07       1.0  T
   8   -136.8760741 -0.152847E-02  0.180E-02    0.06       1.0  T
   9   -136.8762868 -0.212784E-03  0.592E-03    0.06       1.7  T
  10   -136.8762967 -0.982253E-05  0.346E-03    0.06       2.8  T
  11   -136.8762991 -0.247521E-05  0.286E-03    0.06       3.4  T
  12   -136.8763060 -0.685960E-05  0.119E-03    0.06       8.2  T
  13   -136.8763069 -0.866464E-06  0.532E-04    0.06      18.4  T
  14   -136.8763070 -0.124890E-06  0.308E-04    0.06      31.8  T
  15   -136.8763070 -0.424766E-07  0.130E-04    0.06      75.2  T
  16   -136.8763070 -0.547752E-08  0.819E-05    0.06     119.8  T
     SCC iter.                  ...        0 min, 16.435 sec
     gradient                   ...        0 min,  0.129 sec
 * total energy  :  -137.0147403 Eh     change       -0.2626481E-01 Eh
   gradient norm :     0.0384577 Eh/α   predicted    -0.2785548E-01 (   6.06%)
   displ. norm   :     0.9347086 α      lambda       -0.2523584E-01
   maximum displ.:     0.2670053 α      in ANC's #37, #31, #29, ...

........................................................................
.............................. CYCLE   14 ..............................
........................................................................

 iter      E             dE          RMSdq      gap      omega  full diag
   1   -136.8903261 -0.136890E+03  0.115E-01    0.05       0.0  T
   2   -136.8636401  0.266860E-01  0.150E-01    0.06       1.0  T
   3   -136.7578788  0.105761E+00  0.293E-01    0.05       1.0  T
   4   -136.8657253 -0.107847E+00  0.171E-01    0.06       1.0  T
   5   -136.8862242 -0.204988E-01  0.736E-02    0.05       1.0  T
   6   -136.8817227  0.450145E-02  0.848E-02    0.06       1.0  T
   7   -136.8889028 -0.718011E-02  0.417E-02    0.05       1.0  T
   8   -136.8905569 -0.165405E-02  0.203E-02    0.05       1.0  T
   9   -136.8908800 -0.323132E-03  0.101E-02    0.05       1.0  T
  10   -136.8909614 -0.813831E-04  0.448E-03    0.05       2.2  T
  11   -136.8909745 -0.130604E-04  0.135E-03    0.05       7.3  T
  12   -136.8909750 -0.566975E-06  0.890E-04    0.05      11.0  T
  13   -136.8909755 -0.464158E-06  0.288E-04    0.05      34.0  T
  14   -136.8909755 -0.224454E-07  0.176E-04    0.05      55.7  T
  15   -136.8909755 -0.848567E-08  0.119E-04    0.05      82.7  T
     SCC iter.                  ...        0 min, 16.149 sec
     gradient                   ...        0 min,  0.128 sec
 * total energy  :  -137.0384343 Eh     change       -0.2369398E-01 Eh
   gradient norm :     0.0323529 Eh/α   predicted    -0.2364193E-01 (  -0.22%)
   displ. norm   :     0.9502517 α      lambda       -0.2478114E-01
   maximum displ.:     0.2629086 α      in ANC's #37, #54, #31, ...

........................................................................
.............................. CYCLE   15 ..............................
........................................................................

[...]
    13Al   -0.00311 -0.00311   1.763  0.959  0.281
    14Al   -0.00055 -0.00055   1.760  0.952  0.289
    15Al   -0.00514 -0.00514   1.753  0.990  0.262
    16Al    0.00908  0.00908   1.767  0.952  0.272
    17Al   -0.01214 -0.01214   1.749  0.991  0.272
    18Al    0.01050  0.01050   1.764  1.050  0.176
    19Al   -0.00434 -0.00434   1.757  1.037  0.211
    20Al   -0.00318 -0.00318   1.759  0.979  0.265
    21Al   -0.00997 -0.00997   1.756  1.020  0.234
    22Al    0.01102  0.01102   1.773  1.048  0.167
    23Al    0.01398  0.01398   1.775  1.059  0.152
    24Al   -0.00019 -0.00019   1.762  1.030  0.208
    25Al    0.00456  0.00456   1.762  0.991  0.243
    26Al    0.01498  0.01498   1.772  1.040  0.172
    27Al    0.01527  0.01527   1.771  1.048  0.166
    28Al   -0.00451 -0.00451   1.758  1.030  0.216
    29Al   -0.00139 -0.00139   1.757  1.025  0.219
    30Al   -0.00526 -0.00526   1.757  0.975  0.273
    31Al    0.00106  0.00106   1.759  1.031  0.209
    32Al    0.00324  0.00324   1.761  0.978  0.257
    33Al    0.00022  0.00022   1.764  0.945  0.291
    34Al   -0.00832 -0.00832   1.756  0.987  0.266
    35Al    0.00820  0.00820   1.769  0.960  0.263
    36Al   -0.01307 -0.01307   1.755  0.992  0.266
    37Al    0.00731  0.00731   1.759  0.967  0.266
    38Al    0.00298  0.00298   1.787  1.013  0.197
    39Al    0.01626  0.01626   1.774  1.040  0.170
    40Al   -0.00349 -0.00349   1.757  1.035  0.211
    41Al   -0.00627 -0.00627   1.762  0.959  0.285
    42Al    0.00167  0.00167   1.766  1.025  0.206
    43Al    0.00640  0.00640   1.768  1.036  0.190
    44Al    0.00270  0.00270   1.762  0.996  0.239
    45Al   -0.00004 -0.00004   1.760  1.005  0.235
    46Al   -0.00432 -0.00432   1.759  0.981  0.264
    47Al   -0.02163 -0.02163   1.752  1.002  0.268
    48Al   -0.01549 -0.01549   1.755  0.976  0.284
    49Al   -0.00846 -0.00846   1.753  0.990  0.265
    50Al    0.00691  0.00691   1.763  1.044  0.186
    51Al   -0.01212 -0.01212   1.758  0.998  0.257
    52Al    0.00244  0.00244   1.762  0.959  0.277
    53Al   -0.01802 -0.01802   1.752  1.012  0.254
    54Al   -0.00158 -0.00158   1.768  1.041  0.192
    55Al    0.00942  0.00942   1.779  1.030  0.182
    56Al    0.00498  0.00498   1.770  0.976  0.248
    57Al   -0.00792 -0.00792   1.755  0.982  0.271
    58Al    0.00115  0.00115   1.761  1.038  0.200
    59Al    0.00142  0.00142   1.759  1.031  0.209
    60Al   -0.00819 -0.00819   1.764  0.966  0.278
    61Al   -0.00573 -0.00573   1.764  0.996  0.246
    62Al   -0.00307 -0.00307   1.758  0.967  0.278
    63Al    0.01863  0.01863   1.770  0.963  0.249
    64Al    0.00218  0.00218   1.763  0.954  0.281
    65Al   -0.00020 -0.00020   1.763  0.973  0.264
    66Al    0.00210  0.00210   1.763  1.019  0.216
    67Al   -0.01184 -0.01184   1.763  1.005  0.244
    68Al   -0.01183 -0.01183   1.745  1.007  0.261
    69Al   -0.01106 -0.01106   1.758  1.026  0.227
    70Al   -0.00160 -0.00160   1.772  1.051  0.178
    71Al    0.02486  0.02512   1.780  1.016  0.180
    72Al   -0.00935 -0.00935   1.764  1.053  0.193
    73Al   -0.00948 -0.00948   1.756  0.971  0.282
    74Al    0.04501  0.04536   1.778  0.986  0.190
    75Al    0.01492  0.01494   1.774  1.030  0.181
    76Al   -0.00723 -0.00723   1.757  1.050  0.200
    77Al   -0.02681 -0.02678   1.746  1.016  0.266
    78Al    0.00914  0.00915   1.767  0.961  0.263
    79Al   -0.03449 -0.03448   1.751  1.013  0.270
    80Al   -0.01233 -0.01233   1.756  0.984  0.273
    81Al    0.00816  0.00816   1.767  0.953  0.272
    82Al   -0.00662 -0.00667   1.763  0.970  0.273
    83Al   -0.00709 -0.00710   1.766  0.952  0.289
    84Al    0.00452  0.00452   1.762  0.965  0.268
    85Al    0.01506  0.01504   1.763  0.986  0.236
    86Al    0.06665  0.06170   1.772  0.973  0.189
    87Al    0.17011  0.18698   1.754  0.883  0.193
    88Al   -0.00534 -0.00531   1.767  0.966  0.272
    89Al    0.00723  0.00727   1.772  0.928  0.293
    90Al    0.28139  0.30930   1.653  0.972  0.093
    91Al    0.19272  0.19972   1.676  1.061  0.071
    92Al    0.01374  0.01365   1.779  0.937  0.270
    93Al    0.03427  0.03460   1.777  0.916  0.272
    94Al    0.19103  0.19682   1.792  0.838  0.179
    95Al    0.03341  0.03365   1.768  0.933  0.266
    96Al    0.00782  0.00780   1.773  0.953  0.266
    97C     0.23891  0.33872   0.991  2.770  0.000
    98N    -0.40271 -0.58103   1.517  3.886  0.000
    99C     0.10223  0.18996   1.051  2.847  0.000
   100N    -0.54293 -0.68275   1.560  3.983  0.000
   101N    -0.50769 -0.78715   1.517  3.991  0.000
   102H    -0.01918  0.05765   1.019  0.000  0.000
   103H    -0.01314  0.06434   1.013  0.000  0.000
   104H     0.19341  0.39543   0.807  0.000  0.000

Wiberg/Mayer (AO) data.
largest (>0.10) Wiberg bond orders for each atom

 ---------------------------------------------------------------------------
     #   Z sym  total        # sym  WBO       # sym  WBO       # sym  WBO
 ---------------------------------------------------------------------------
     1  13 Al   1.418 --     5 Al   0.469     2 Al   0.445    17 Al   0.440
     2  13 Al   1.520 --     1 Al   0.445     3 Al   0.402    18 Al   0.359
                             6 Al   0.311
     3  13 Al   1.511 --     4 Al   0.457     2 Al   0.402    19 Al   0.351
                             7 Al   0.292
     4  13 Al   1.421 --     8 Al   0.459     3 Al   0.457    20 Al   0.445
     5  13 Al   1.535 --     9 Al   0.479     1 Al   0.469    21 Al   0.300
                             6 Al   0.268
     6  13 Al   1.610 --    10 Al   0.456     7 Al   0.381     2 Al   0.311
                             5 Al   0.268    22 Al   0.165
     7  13 Al   1.600 --     6 Al   0.381     8 Al   0.333    11 Al   0.333
                             3 Al   0.292    23 Al   0.230
     8  13 Al   1.519 --     4 Al   0.459    12 Al   0.424     7 Al   0.333
                            24 Al   0.294
     9  13 Al   1.477 --     5 Al   0.479    25 Al   0.449    13 Al   0.395
                            10 Al   0.141
    10  13 Al   1.574 --     6 Al   0.456    11 Al   0.412    13 Al   0.296
                            26 Al   0.238     9 Al   0.141
    11  13 Al   1.594 --    10 Al   0.412     7 Al   0.333    15 Al   0.293
                            12 Al   0.292    27 Al   0.259
    12  13 Al   1.511 --    16 Al   0.441     8 Al   0.424    28 Al   0.342
                            11 Al   0.292
    13  13 Al   1.503 --    14 Al   0.473     9 Al   0.395    29 Al   0.331
                            10 Al   0.296
    14  13 Al   1.455 --    15 Al   0.494    13 Al   0.473    30 Al   0.420
    15  13 Al   1.547 --    14 Al   0.494    16 Al   0.480    11 Al   0.293
                            31 Al   0.236
    16  13 Al   1.429 --    15 Al   0.480    32 Al   0.458    12 Al   0.441
    17  13 Al   1.564 --    33 Al   0.493     1 Al   0.440    21 Al   0.354
                            18 Al   0.237
    18  13 Al   1.618 --     2 Al   0.359    34 Al   0.347    22 Al   0.310
                            19 Al   0.291    17 Al   0.237
    19  13 Al   1.631 --    35 Al   0.475     3 Al   0.351    18 Al   0.291
                            20 Al   0.270    23 Al   0.180
    20  13 Al   1.537 --    36 Al   0.492     4 Al   0.445    24 Al   0.298
                            19 Al   0.270
    21  13 Al   1.614 --    37 Al   0.477    17 Al   0.354     5 Al   0.300
                            25 Al   0.279    22 Al   0.161
    22  13 Al   1.666 --    23 Al   0.385    26 Al   0.342    18 Al   0.310
                            38 Al   0.271     6 Al   0.165    21 Al   0.161
    23  13 Al   1.666 --    39 Al   0.402    22 Al   0.385    24 Al   0.236
                             7 Al   0.230    19 Al   0.180    43 Al   0.155
                            27 Al   0.104
    24  13 Al   1.602 --    40 Al   0.441    28 Al   0.325    20 Al   0.298
                             8 Al   0.294    23 Al   0.236
    25  13 Al   1.533 --     9 Al   0.449    41 Al   0.398    29 Al   0.315
                            21 Al   0.279
    26  13 Al   1.653 --    27 Al   0.371    42 Al   0.368    22 Al   0.342
                            29 Al   0.239    10 Al   0.238
    27  13 Al   1.665 --    43 Al   0.437    26 Al   0.371    11 Al   0.259
                            31 Al   0.252    28 Al   0.190    23 Al   0.104
    28  13 Al   1.616 --    44 Al   0.462    12 Al   0.342    24 Al   0.325
                            32 Al   0.253    27 Al   0.190
    29  13 Al   1.612 --    45 Al   0.447    13 Al   0.331    25 Al   0.315
                            30 Al   0.261    26 Al   0.239
    30  13 Al   1.535 --    46 Al   0.473    14 Al   0.420    31 Al   0.360
                            29 Al   0.261
    31  13 Al   1.604 --    47 Al   0.371    30 Al   0.360    32 Al   0.349
                            27 Al   0.252    15 Al   0.236
    32  13 Al   1.518 --    16 Al   0.458    48 Al   0.429    31 Al   0.349
                            28 Al   0.253
    33  13 Al   1.442 --    17 Al   0.493    49 Al   0.479    34 Al   0.402
    34  13 Al   1.549 --    35 Al   0.436    33 Al   0.402    50 Al   0.360
                            18 Al   0.347
    35  13 Al   1.441 --    19 Al   0.475    51 Al   0.468    34 Al   0.436
    36  13 Al   1.550 --    52 Al   0.507    20 Al   0.492    51 Al   0.267
                            40 Al   0.126    39 Al   0.118
    37  13 Al   1.497 --    53 Al   0.513    21 Al   0.477    41 Al   0.378
    38  13 Al   1.568 --    42 Al   0.356    50 Al   0.282    22 Al   0.271
                            39 Al   0.257    53 Al   0.237    54 Al   0.127
    39  13 Al   1.668 --    23 Al   0.402    51 Al   0.301    38 Al   0.257
                            55 Al   0.242    54 Al   0.209    36 Al   0.118
    40  13 Al   1.635 --    24 Al   0.441    56 Al   0.412    44 Al   0.293
                            55 Al   0.290    36 Al   0.126
    41  13 Al   1.514 --    57 Al   0.454    25 Al   0.398    37 Al   0.378
                            45 Al   0.263
    42  13 Al   1.633 --    58 Al   0.487    26 Al   0.368    38 Al   0.356
                            43 Al   0.226    45 Al   0.102
    43  13 Al   1.649 --    27 Al   0.437    59 Al   0.400    55 Al   0.296
                            42 Al   0.226    23 Al   0.155
    44  13 Al   1.538 --    28 Al   0.462    60 Al   0.428    40 Al   0.293
                            48 Al   0.279
    45  13 Al   1.578 --    29 Al   0.447    61 Al   0.406    46 Al   0.330
                            41 Al   0.263    42 Al   0.102
    46  13 Al   1.519 --    30 Al   0.473    62 Al   0.456    45 Al   0.330
                            47 Al   0.198
    47  13 Al   1.627 --    63 Al   0.491    31 Al   0.371    48 Al   0.299
                            59 Al   0.253    46 Al   0.198
    48  13 Al   1.544 --    64 Al   0.489    32 Al   0.429    47 Al   0.299
                            44 Al   0.279
    49  13 Al   1.548 --    33 Al   0.479    65 Al   0.440    53 Al   0.319
                            50 Al   0.270
    50  13 Al   1.613 --    66 Al   0.453    34 Al   0.360    38 Al   0.282
                            49 Al   0.270    51 Al   0.163
    51  13 Al   1.592 --    35 Al   0.468    67 Al   0.381    39 Al   0.301
                            36 Al   0.267    50 Al   0.163
    52  13 Al   1.464 --    36 Al   0.507    68 Al   0.493    56 Al   0.387
    53  13 Al   1.641 --    37 Al   0.513    69 Al   0.386    49 Al   0.319
                            38 Al   0.237    57 Al   0.120
    54  13 Al   1.682 --    70 Al   0.459    55 Al   0.341    71 Al   0.277
                            39 Al   0.209    67 Al   0.199    38 Al   0.127
    55  13 Al   1.632 --    54 Al   0.341    43 Al   0.296    40 Al   0.290
                            72 Al   0.269    39 Al   0.242
    56  13 Al   1.503 --    40 Al   0.412    52 Al   0.387    72 Al   0.377
                            60 Al   0.286
    57  13 Al   1.538 --    73 Al   0.512    41 Al   0.454    61 Al   0.359
                            53 Al   0.120
    58  13 Al   1.641 --    42 Al   0.487    74 Al   0.454    59 Al   0.284
                            61 Al   0.261
    59  13 Al   1.679 --    75 Al   0.515    43 Al   0.400    58 Al   0.284
                            47 Al   0.253
    60  13 Al   1.513 --    44 Al   0.428    76 Al   0.428    64 Al   0.359
                            56 Al   0.286
    61  13 Al   1.580 --    45 Al   0.406    57 Al   0.359    77 Al   0.315
                            58 Al   0.261    62 Al   0.240
    62  13 Al   1.528 --    46 Al   0.456    78 Al   0.447    63 Al   0.368
                            61 Al   0.240
    63  13 Al   1.457 --    47 Al   0.491    79 Al   0.437    62 Al   0.368
    64  13 Al   1.459 --    80 Al   0.502    48 Al   0.489    60 Al   0.359
    65  13 Al   1.517 --    81 Al   0.477    49 Al   0.440    66 Al   0.298
                            69 Al   0.277
    66  13 Al   1.592 --    50 Al   0.453    67 Al   0.361    82 Al   0.311
                            65 Al   0.298    70 Al   0.131
    67  13 Al   1.573 --    51 Al   0.381    66 Al   0.361    83 Al   0.335
                            68 Al   0.301    54 Al   0.199
    68  13 Al   1.588 --    84 Al   0.495    52 Al   0.493    67 Al   0.301
                            72 Al   0.229
    69  13 Al   1.624 --    73 Al   0.387    53 Al   0.386    70 Al   0.279
                            65 Al   0.277    85 Al   0.267
    70  13 Al   1.667 --    54 Al   0.459    74 Al   0.364    86 Al   0.286
                            69 Al   0.279    66 Al   0.131
    71  13 Al   1.663 --    91 Al   0.353    75 Al   0.310    74 Al   0.278
                            54 Al   0.277    87 Al   0.176    72 Al   0.156
    72  13 Al   1.671 --    56 Al   0.377    88 Al   0.346    76 Al   0.300
                            55 Al   0.269    68 Al   0.229    71 Al   0.156
    73  13 Al   1.513 --    57 Al   0.512    89 Al   0.503    69 Al   0.387
    74  13 Al   1.591 --    58 Al   0.454    70 Al   0.364    71 Al   0.278
                            77 Al   0.256    90 Al   0.155
    75  13 Al   1.671 --    59 Al   0.515    71 Al   0.310    76 Al   0.284
                            79 Al   0.217    91 Al   0.150
    76  13 Al   1.629 --    60 Al   0.428    92 Al   0.378    72 Al   0.300
                            75 Al   0.284    80 Al   0.194
    77  13 Al   1.621 --    78 Al   0.500    93 Al   0.489    61 Al   0.315
                            74 Al   0.256
    78  13 Al   1.460 --    77 Al   0.500    62 Al   0.447    79 Al   0.380
    79  13 Al   1.632 --    63 Al   0.437    78 Al   0.380    95 Al   0.317
                            80 Al   0.286    75 Al   0.217
    80  13 Al   1.550 --    64 Al   0.502    96 Al   0.482    79 Al   0.286
                            76 Al   0.194
    81  13 Al   1.435 --    85 Al   0.497    65 Al   0.477    82 Al   0.405
    82  13 Al   1.521 --    83 Al   0.460    81 Al   0.405    86 Al   0.338
                            66 Al   0.311
    83  13 Al   1.505 --    84 Al   0.481    82 Al   0.460    67 Al   0.335
                            87 Al   0.178
    84  13 Al   1.451 --    68 Al   0.495    83 Al   0.481    88 Al   0.437
    85  13 Al   1.503 --    81 Al   0.497    89 Al   0.454    69 Al   0.267
                            86 Al   0.258
    86  13 Al   1.607 --    82 Al   0.338    90 Al   0.306    70 Al   0.286
                            85 Al   0.258    87 Al   0.242
    87  13 Al   1.640 --    98 N    0.621    88 Al   0.326    86 Al   0.242
                            83 Al   0.178    71 Al   0.176
    88  13 Al   1.536 --    84 Al   0.437    92 Al   0.405    72 Al   0.346
                            87 Al   0.326
    89  13 Al   1.465 --    73 Al   0.503    85 Al   0.454    93 Al   0.357
                            90 Al   0.115
    90  13 Al   1.925 --   101 N    0.526   100 N    0.502    93 Al   0.367
                            86 Al   0.306    74 Al   0.155    89 Al   0.115
    91  13 Al   1.898 --   100 N    0.497    99 C    0.436    71 Al   0.353
                            95 Al   0.297    92 Al   0.273    75 Al   0.150
    92  13 Al   1.506 --    96 Al   0.423    88 Al   0.405    76 Al   0.378
                            91 Al   0.273
    93  13 Al   1.505 --    77 Al   0.489    90 Al   0.367    89 Al   0.357
                            94 Al   0.237
    94  13 Al   1.486 --   100 N    0.557    95 Al   0.385    93 Al   0.237
    95  13 Al   1.532 --    96 Al   0.458    94 Al   0.385    79 Al   0.317
                            91 Al   0.297
    96  13 Al   1.427 --    80 Al   0.482    95 Al   0.458    92 Al   0.423
    97   6 C    3.531 --    98 N    1.229   101 N    1.206   102 H    0.859
    98   7 N    2.937 --    97 C    1.229    99 C    0.943    87 Al   0.621
    99   6 C    3.386 --   100 N    0.958    98 N    0.943   103 H    0.824
                            91 Al   0.436
   100   7 N    2.643 --    99 C    0.958    94 Al   0.557    90 Al   0.502
                            91 Al   0.497
   101   7 N    2.790 --    97 C    1.206   104 H    0.875    90 Al   0.526
   102   1 H    0.996 --    97 C    0.859
   103   1 H    0.959 --    99 C    0.824
   104   1 H    0.959 --   101 N    0.875
 ---------------------------------------------------------------------------

Topologies differ in total number of bonds
Writing topology from bond orders to xtbtopo.mol

 dipole moment from electron density (au)
     X       Y       Z   
   0.5315  -0.0553  -2.0600  total (Debye):    5.409

           -------------------------------------------------
          |                Geometry Summary                 |
           -------------------------------------------------

      molecular mass/u    :     2659.2931026
   center of mass at/Å    :        6.9418278       4.5169879      16.0556861
  moments of inertia/u·Å² :        0.6970542E+05   0.9341034E+05   0.1005001E+06
rotational constants/cm⁻¹ :        0.2418411E-03   0.1804686E-03   0.1677375E-03

 * 6 selected distances

     #   Z          #   Z                                           value/Å
    97   6 C       98   7 N                                       1.3680287
    98   7 N       99   6 C                                       1.4761687
    99   6 C      100   7 N                                       1.4869422 (max)
    97   6 C      101   7 N                                       1.3700328
    99   6 C      103   1 H                                       1.1435709
   101   7 N      104   1 H                                       1.0395994 (min)

 * 3 distinct bonds (by element types)

   Z      Z             #   av. dist./Å        max./Å        min./Å
   1 H    6 C           1     1.1435709     1.1435709     1.1435709
   1 H    7 N           1     1.0395994     1.0395994     1.0395994
   6 C    7 N           4     1.4252931     1.4869422     1.3680287


optimized geometry written to: xtbopt.xyz


           -------------------------------------------------
          | TOTAL ENERGY             -137.451991583883 Eh   |
          | GRADIENT NORM               0.004963506050 Eh/α |
          | HOMO-LUMO GAP               0.028004333866 eV   |
           -------------------------------------------------

------------------------------------------------------------------------
 * finished run on 2024/10/27 at 19:38:08.933     
------------------------------------------------------------------------
 total:
 * wall-time:     0 d,  0 h,  6 min, 30.148 sec
 *  cpu-time:     0 d,  4 h, 12 min, 24.895 sec
 * ratio c/w:    38.818 speedup
 SCF:
 * wall-time:     0 d,  0 h,  0 min,  0.507 sec
 *  cpu-time:     0 d,  0 h,  0 min, 22.816 sec
 * ratio c/w:    45.011 speedup
 ANC optimizer:
 * wall-time:     0 d,  0 h,  6 min, 29.523 sec
 *  cpu-time:     0 d,  4 h, 11 min, 58.060 sec
 * ratio c/w:    38.812 speedup

normal termination of xtb
----------------------------------------
Optimization completed successfully at Sun Oct 27 19:38:08 UTC 2024
Optimized geometry saved in xtbopt.xyz
