&FCI NORB=   5,NELEC=   2,MS2= 1,
  ORBSYM=1,1,1,1,1,
  ISYM=0,
 /
 7.5364719042568501E-02   1   1   1   1
 2.0230811241778320E-04   1   1   1   2
 8.6765862950831087E-05   1   1   1   3
-3.2634544609594739E-05   1   1   1   4
-7.8446148255877546E-07   1   1   1   5
 7.1393884248771536E-02   1   1   2   2
 4.0218593285578272E-05   1   1   2   3
 3.6537700983402851E-04   1   1   2   4
-1.2406628265428556E-05   1   1   2   5
 7.1319066849726137E-02   1   1   3   3
-5.9353044943602360E-05   1   1   3   4
-3.1079552330444968E-04   1   1   3   5
 6.8704324609077660E-02   1   1   4   4
 1.6169725058495733E-04   1   1   4   5
 6.9313485204735403E-02   1   1   5   5
 1.8234916072675746E-03   1   2   1   2
 4.1935359789947746E-06   1   2   1   3
-1.4920257485928206E-04   1   2   1   4
-2.9075863303282853E-05   1   2   1   5
-3.9694711208838705E-04   1   2   2   2
-3.2337367299545045E-04   1   2   2   3
 3.8775146955572522E-05   1   2   2   4
-6.2907131138157167E-07   1   2   2   5
 1.6302741061413817E-04   1   2   3   3
-1.3079198270099789E-05   1   2   3   4
-9.8079244164338725E-05   1   2   3   5
 6.8434207306094467E-05   1   2   4   4
-1.3153694170035571E-04   1   2   4   5
-2.6992135708044345E-04   1   2   5   5
 1.8085491917617204E-03   1   3   1   3
-4.2318913611750730E-05   1   3   1   4
 1.5065418811188456E-04   1   3   1   5
-3.7576855604954859E-04   1   3   2   2
 5.7402535321006141E-05   1   3   2   3
-4.7978872905406412E-05   1   3   2   4
 9.7101094516351943E-05   1   3   2   5
 2.7553806466222623E-04   1   3   3   3
-2.1436242284375657E-05   1   3   3   4
 7.6486231070489822E-05   1   3   3   5
 6.3063398468925847E-06   1   3   4   4
-2.6904102035688385E-04   1   3   4   5
-8.6015860759977874E-06   1   3   5   5
 1.0869622045883564E-03   1   4   1   4
 1.7994934277378279E-04   1   4   1   5
 3.9894746335068990E-05   1   4   2   2
 4.5927975584156926E-06   1   4   2   3
 9.4580628168098178E-05   1   4   2   4
-1.1560812358691854E-04   1   4   2   5
-8.8760914532988615E-05   1   4   3   3
 1.3479287792813375E-05   1   4   3   4
 6.5260499408590080E-05   1   4   3   5
 4.2681551134438090E-06   1   4   4   4
 1.1032663374689614E-05   1   4   4   5
-1.8198017007176726E-04   1   4   5   5
 1.3704737085788413E-03   1   5   1   5
 4.5627758605082908E-05   1   5   2   2
 5.7376240234848711E-05   1   5   2   3
-1.6950710373522744E-04   1   5   2   4
 8.6773131962386227E-05   1   5   2   5
-1.2260352517985961E-04   1   5   3   3
-1.3364325667142754E-04   1   5   3   4
-2.4502785784729890E-05   1   5   3   5
 5.2879462970092649E-05   1   5   4   4
 7.1864941996106283E-05   1   5   4   5
 2.8492194406943571E-05   1   5   5   5
 7.4547726814814599E-02   2   2   2   2
-2.8824546325366353E-04   2   2   2   3
-8.6708697988794811E-05   2   2   2   4
 3.3855754587204929E-05   2   2   2   5
 7.1133739224308629E-02   2   2   3   3
-4.5206950514789924E-05   2   2   3   4
 9.3690745308553107E-05   2   2   3   5
 6.9194747764638825E-02   2   2   4   4
-4.7045589480686277E-05   2   2   4   5
 6.9340760770020896E-02   2   2   5   5
 1.8464128554478117E-03   2   3   2   3
 1.6688907738826167E-05   2   3   2   4
 1.8461398537350248E-05   2   3   2   5
 1.0157511567978334E-04   2   3   3   3
-1.7440841384236950E-05   2   3   3   4
-1.3354486287628185E-05   2   3   3   5
 4.2741307769283653E-05   2   3   4   4
 7.6060831191712518E-05   2   3   4   5
 1.2932387680638160E-04   2   3   5   5
 1.6770795286183465E-03   2   4   2   4
-1.9116894685916944E-04   2   4   2   5
 6.1504032379669434E-06   2   4   3   3
-5.0140027709016414E-05   2   4   3   4
-3.8184631186198538E-04   2   4   3   5
 1.5274234286869520E-04   2   4   4   4
 1.6580884512275588E-05   2   4   4   5
-1.3311240806039858E-04   2   4   5   5
 1.1552921560663793E-03   2   5   2   5
-6.7839386179070044E-05   2   5   3   3
-4.2052041927857558E-05   2   5   3   4
 1.6379116554401225E-04   2   5   3   5
 2.6102995216508455E-05   2   5   4   4
 6.0247701263040537E-05   2   5   4   5
-1.4783241510539519E-05   2   5   5   5
 7.4111137160661408E-02   3   3   3   3
-3.6936166792646562E-05   3   3   3   4
 9.3778340509220845E-05   3   3   3   5
 6.9177994096078582E-02   3   3   4   4
 4.3022592664676540E-05   3   3   4   5
 6.9008014133189327E-02   3   3   5   5
 1.1077065143704548E-03   3   4   3   4
 5.5260523222305193E-05   3   4   3   5
-4.9167902811755935E-05   3   4   4   4
 9.0012469454458602E-06   3   4   4   5
-3.8485614373891491E-05   3   4   5   5
 1.5503583294807562E-03   3   5   3   5
-4.3386246757334259E-05   3   5   4   4
 1.1949952774720326E-05   3   5   4   5
-2.5199978833125888E-05   3   5   5   5
 7.0445860673854263E-02   4   4   4   4
 2.0519202708062202E-04   4   4   4   5
 6.7614834661891082E-02   4   4   5   5
 1.7314874375256252E-03   4   5   4   5
 2.3557942359658912E-04   4   5   5   5
 7.0982554742307719E-02   5   5   5   5
-1.3138538125539795E-01   1   1   0   0
 3.3415164783981698E-04   1   2   0   0
-5.7092711352065006E-04   1   3   0   0
 1.2736410459642656E-03   1   4   0   0
 3.3457788260094114E-04   1   5   0   0
-1.1828178233851214E-01   2   2   0   0
 3.2180659423703488E-03   2   3   0   0
 9.6493842787412788E-04   2   4   0   0
 3.7308258958793631E-04   2   5   0   0
-1.2480094049594202E-01   3   3   0   0
 1.5513463090490779E-03   3   4   0   0
 2.6655224419907071E-03   3   5   0   0
-1.2103430292702602E-01   4   4   0   0
-5.3526665558592795E-04   4   5   0   0
-1.2268789909121089E-01   5   5   0   0
-2.4128124521998734E+02   0   0   0   0
