&FCI NORB=   5,NELEC=   2,MS2= 1,
  ORBSYM=1,1,1,1,1,
  ISYM=0,
 /
 4.6359834296327934E-01   1   1   1   1
 7.5303761117585864E-04   1   1   1   2
-3.7461990868022832E-03   1   1   1   3
-2.4486262563260461E-02   1   1   1   4
 4.5552626946214776E-03   1   1   1   5
 3.0700456941907428E-01   1   1   2   2
-6.9927696852101762E-03   1   1   2   3
-1.1477227405323720E-02   1   1   2   4
-9.3367581571516514E-04   1   1   2   5
 3.6302972138435974E-01   1   1   3   3
-4.3447844661717843E-03   1   1   3   4
 4.5351477414658399E-03   1   1   3   5
 2.0960266667254471E-01   1   1   4   4
 1.0800884001555084E-02   1   1   4   5
 2.5770765422288011E-01   1   1   5   5
 8.4344972187671494E-03   1   2   1   2
-2.0102412019766961E-03   1   2   1   3
-8.3145476652813288E-04   1   2   1   4
-4.2486929766814179E-04   1   2   1   5
 1.2545665036656428E-03   1   2   2   2
 3.3302056463061958E-03   1   2   2   3
 1.3032785750584908E-03   1   2   2   4
 4.1689183850468093E-03   1   2   2   5
 2.1501898085773857E-04   1   2   3   3
 2.6351643816921135E-04   1   2   3   4
-1.1046812057729914E-04   1   2   3   5
-1.7745770568738312E-03   1   2   4   4
 3.2416398487857434E-04   1   2   4   5
-1.3123484693317903E-03   1   2   5   5
 1.6623668781297025E-02   1   3   1   3
 9.8808782130326630E-05   1   3   1   4
 6.3199932941055141E-04   1   3   1   5
 1.5837767609442367E-03   1   3   2   2
 1.4493795887684940E-03   1   3   2   3
 6.3209954864477220E-04   1   3   2   4
-2.1612396788650676E-04   1   3   2   5
-3.4814735500631713E-03   1   3   3   3
-1.0513018192280336E-03   1   3   3   4
 2.8695279320699674E-03   1   3   3   5
 1.3029624089593394E-03   1   3   4   4
 3.3307349842947302E-04   1   3   4   5
 2.1711095843118104E-03   1   3   5   5
 5.3965057083466264E-03   1   4   1   4
 8.8969318749529793E-04   1   4   1   5
-2.1142265380372162E-03   1   4   2   2
 1.5168044941429361E-03   1   4   2   3
 9.7140885150647286E-04   1   4   2   4
-8.6010873855845132E-04   1   4   2   5
-1.5100560252979428E-02   1   4   3   3
 2.5393677073323864E-04   1   4   3   4
-4.7786485183323063E-04   1   4   3   5
 1.2366411483301381E-02   1   4   4   4
-3.6029023662661086E-04   1   4   4   5
-5.9816709232899312E-04   1   4   5   5
 6.7090530190408344E-03   1   5   1   5
 4.0626581308562410E-03   1   5   2   2
-1.9094096331539632E-03   1   5   2   3
-3.1813529257552819E-04   1   5   2   4
-3.2985304577731495E-04   1   5   2   5
 2.7230168109613731E-03   1   5   3   3
 2.6659122080860718E-04   1   5   3   4
 5.8147973944416538E-04   1   5   3   5
 3.2384190262097503E-03   1   5   4   4
-3.0638641142455319E-04   1   5   4   5
 9.1730381755474771E-04   1   5   5   5
 3.6450107789109132E-01   2   2   2   2
-7.3487391857792669E-03   2   2   2   3
-8.2876308405919474E-03   2   2   2   4
 2.3317824881358418E-03   2   2   2   5
 3.1243736805987055E-01   2   2   3   3
-1.2877974469203107E-03   2   2   3   4
 9.7747854566649240E-04   2   2   3   5
 2.6940474202962045E-01   2   2   4   4
 8.6022598107063641E-03   2   2   4   5
 2.9935228346135340E-01   2   2   5   5
 5.8262335989915481E-02   2   3   2   3
 7.0511761806244921E-05   2   3   2   4
 2.9008247431172589E-03   2   3   2   5
 8.8875205597828931E-03   2   3   3   3
-6.2657481936624010E-03   2   3   3   4
 1.9462268659358557E-04   2   3   3   5
-4.0838040770077300E-03   2   3   4   4
 1.2346385874836344E-02   2   3   4   5
-1.4454749391092182E-02   2   3   5   5
 1.1344023635101426E-02   2   4   2   4
 2.1647704923970813E-03   2   4   2   5
-1.2260558989735630E-02   2   4   3   3
 8.4198559345961417E-05   2   4   3   4
 6.6086888496891727E-04   2   4   3   5
 1.5928820110908206E-02   2   4   4   4
-1.9712162344138751E-03   2   4   4   5
-9.3193524220144715E-03   2   4   5   5
 1.1160916427031431E-02   2   5   2   5
-1.4833126760962844E-04   2   5   3   3
 4.9116714397395801E-04   2   5   3   4
-1.1696415790074231E-03   2   5   3   5
-4.8988452359018031E-03   2   5   4   4
-4.0014772796404007E-04   2   5   4   5
 7.0702859739978151E-04   2   5   5   5
 3.8675305932194309E-01   3   3   3   3
-4.4051596086561668E-03   3   3   3   4
 3.3617210440455027E-03   3   3   3   5
 2.0531878187266353E-01   3   3   4   4
 8.2920068548087509E-03   3   3   4   5
 2.5607341377345644E-01   3   3   5   5
 2.3631813883353229E-03   3   4   3   4
 3.2100684531499106E-04   3   4   3   5
 1.3316305211590405E-03   3   4   4   4
-1.6483244248997006E-03   3   4   4   5
 1.6157277336228634E-03   3   4   5   5
 5.2738726535396891E-03   3   5   3   5
 4.5809937244422353E-04   3   5   4   4
 5.2343463658778913E-04   3   5   4   5
-1.5473022644162423E-03   3   5   5   5
 3.8356145165722427E-01   4   4   4   4
 4.4187931843954120E-03   4   4   4   5
 2.3897319716246335E-01   4   4   5   5
 9.5717419487081710E-03   4   5   4   5
-1.8620679414237942E-04   4   5   5   5
 3.2687239668117002E-01   5   5   5   5
-7.0144661164907585E-01   1   1   0   0
-7.5305796768842051E-04   1   2   0   0
 3.7462895511813387E-03   1   3   0   0
 2.4486443801375331E-02   1   4   0   0
-4.5552846234695691E-03   1   5   0   0
-6.5149031008631542E-01   2   2   0   0
 1.1975327603661479E-02   2   3   0   0
 2.2123192290652002E-02   2   4   0   0
 1.4424607834255850E-03   2   5   0   0
-7.0779163433938452E-01   3   3   0   0
 8.7884682123848812E-03   3   4   0   0
-8.4382621329590242E-03   3   5   0   0
-3.6812663732284268E-01   4   4   0   0
-2.0711966115240617E-02   4   5   0   0
-4.0338004583525028E-01   5   5   0   0
-4.2031389104480525E+01   0   0   0   0
