
  ___ ___ ___ _ _ _  
 |   |   |_  | | | | 
 | | | | | . | | | | 
 |__ |  _|___|_____|  24.6.0
 |___|_|             

User:   karim@m1.local
Date:   Mon Aug  5 12:25:14 2024
Arch:   arm64
Pid:    97703
CWD:    /Users/karim/github/2024_bmw_airbus/literature/as_embedding_cp2k/Al_slab/3_GPAW_Al_slab
Python: 3.12.2
gpaw:   /Users/karim/.pyenv/versions/3.12.2/envs/inhibitQ/lib/python3.12/site-packages/gpaw
_gpaw:  /Users/karim/.pyenv/versions/3.12.2/envs/inhibitQ/lib/python3.12/site-packages/
        _gpaw.cpython-312-darwin.so
ase:    /Users/karim/.pyenv/versions/3.12.2/envs/inhibitQ/lib/python3.12/site-packages/ase (version 3.23.0)
numpy:  /Users/karim/.pyenv/versions/3.12.2/envs/inhibitQ/lib/python3.12/site-packages/numpy (version 1.26.4)
scipy:  /Users/karim/.pyenv/versions/3.12.2/envs/inhibitQ/lib/python3.12/site-packages/scipy (version 1.14.0)
libxc:  6.2.2
units:  Angstrom and eV
cores: 4
OpenMP: False
OMP_NUM_THREADS: 1

Input parameters:
  basis: dzp
  kpts: [6 6 1]
  mode: {ecut: 600.0,
         name: pw}
  xc: vdW-DF2

System changes: positions, numbers, cell, pbc, initial_charges, initial_magmoms 

Initialize ...

species:
  Al:
    name: Aluminium
    id: c3ca7029021926e146cb615215d465cf
    Z: 13.0
    valence: 3
    core: 10
    charge: 0.0
    file: /Users/karim/gpaw-setups/gpaw-setups-24.1.0/Al.revPBE.gz
    compensation charges: {type: gauss,
                           rc: 0.34,
                           lmax: 2}
    cutoffs: {filter: 1.91,
              core: 2.36}
    projectors:
      #              energy  rcut
      - 3s(2.00)    -7.723   1.085
      - 3p(1.00)    -2.699   1.085
      -  s          19.489   1.085
      -  p          24.513   1.085
      -  d           0.000   1.085
  
    # LCAO basis set for Al:
    #   Name: dzp
    #   File: /Users/karim/gpaw-setups/gpaw-setups-24.1.0/Al.dzp.basis.gz
    #   Number of radial functions: 5
    #   Number of spherical harmonics: 13
    #     l=0, rc=7.8750 Bohr: 3s-sz confined orbital
    #     l=1, rc=10.4219 Bohr: 3p-sz confined orbital
    #     l=0, rc=4.6094 Bohr: 3s-dz split-valence wave
    #     l=1, rc=6.2812 Bohr: 3p-dz split-valence wave
    #     l=2, rc=10.4219 Bohr: d-type Gaussian polarization
    #   Number of RI-basis functions 0

Reference energy: -105692.239487  # eV

Spin-paired calculation

Convergence criteria:
 Maximum [total energy] change in last 3 cyles: 0.0005 eV / valence electron
 Maximum integral of absolute [dens]ity change: 0.0001 electrons / valence electron
 Maximum integral of absolute [eigenst]ate change: 4e-08 eV^2 / valence electron
 Maximum number of scf [iter]ations: 333
 (Square brackets indicate name in SCF output, whereas a 'c' in
 the SCF output indicates the quantity has converged.)

Symmetries present (total): 12

  ( 1  0  0)  ( 1  0  0)  ( 1 -1  0)  ( 1 -1  0)  ( 0  1  0)  ( 0  1  0)
  ( 1 -1  0)  ( 0  1  0)  ( 1  0  0)  ( 0 -1  0)  ( 1  0  0)  (-1  1  0)
  ( 0  0 -1)  ( 0  0  1)  ( 0  0 -1)  ( 0  0  1)  ( 0  0  1)  ( 0  0 -1)

  ( 0 -1  0)  ( 0 -1  0)  (-1  1  0)  (-1  1  0)  (-1  0  0)  (-1  0  0)
  ( 1 -1  0)  (-1  0  0)  ( 0  1  0)  (-1  0  0)  ( 0 -1  0)  (-1  1  0)
  ( 0  0  1)  ( 0  0 -1)  ( 0  0 -1)  ( 0  0  1)  ( 0  0 -1)  ( 0  0  1)
Note: your k-points are not as symmetric as your crystal!

36 k-points: 6 x 6 x 1 Monkhorst-Pack grid
12 k-points in the irreducible part of the Brillouin zone
       k-points in crystal coordinates                weights
   0:     0.08333333   -0.08333333    0.00000000          2/36
   1:     0.08333333    0.08333333    0.00000000          2/36
   2:     0.25000000   -0.25000000    0.00000000          2/36
   3:     0.25000000   -0.08333333    0.00000000          4/36
   4:     0.25000000    0.08333333    0.00000000          4/36
   5:     0.25000000    0.25000000    0.00000000          2/36
   6:     0.41666667   -0.41666667    0.00000000          2/36
   7:     0.41666667   -0.25000000    0.00000000          4/36
   8:     0.41666667   -0.08333333    0.00000000          4/36
   9:     0.41666667    0.08333333    0.00000000          4/36
          ...
  11:     0.41666667    0.41666667    0.00000000          2/36

Wave functions: Plane wave expansion
  Cutoff energy: 600.000 eV
  Number of coefficients (min, max): 25576, 25683
  Pulay-stress correction: 0.000000 eV/Ang^3 (de/decut=0.000000)
  Using Numpy's FFT
  ScaLapack parameters: grid=1x1, blocksize=None
  Wavefunction extrapolation:
    Improved wavefunction reuse through dual PAW basis 

Occupation numbers: Fermi-Dirac:
  width: 0.1000  # eV
 

Eigensolver
   Davidson(niter=2) 

Densities:
  Coarse grid: 35*35*160 grid
  Fine grid: 70*70*320 grid
  Total Charge: 0.000000 

Density mixing:
  Method: separate
  Backend: pulay
  Linear mixing parameter: 0.05
  old densities: 5
  Damping of long wavelength oscillations: 50 

Hamiltonian:
  XC and Coulomb potentials evaluated on a 70*70*320 grid
  Using the vdW-DF2 Exchange-Correlation functional
  External potential:
    NoExternalPotential
 

XC parameters: vdW-DF2 with 2 nearest neighbor stencil

Memory estimate:
  Process memory now: 205.14 MiB
  Calculator: 177.92 MiB
    Density: 80.91 MiB
      Arrays: 38.88 MiB
      Localized functions: 27.08 MiB
      Mixer: 14.95 MiB
    Hamiltonian: 25.97 MiB
      Arrays: 25.42 MiB
      XC: 0.00 MiB
      Poisson: 0.00 MiB
      vbar: 0.55 MiB
    Wavefunctions: 71.04 MiB
      Arrays psit_nG: 38.80 MiB
      Eigensolver: 15.06 MiB
      Projections: 0.31 MiB
      Projectors: 8.22 MiB
      PW-descriptor: 8.65 MiB

Total number of cores used: 4
Parallelization over k-points: 4

Number of atoms: 16
Number of atomic orbitals: 208
Number of bands in calculation: 33
Number of valence electrons: 48
Bands to converge: occupied

... initialized

Initializing position-dependent things.

Density initialized from atomic densities
Creating initial wave functions:
  33 bands from LCAO basis set

                                 
                                 
                                 
                                 
                                 
            Al     Al            
       Al     Al                 
             Al     Al           
        Al     Al                
                                 
                Al     Al        
                                 
           Al     Al             
                                 
            Al     Al            
       Al     Al                 
                                 
                                 
                                 
                                 

Positions:
   0 Al     0.000000    0.000000   10.000000    ( 0.0000,  0.0000,  0.0000)
   1 Al     2.863782    0.000000   10.000000    ( 0.0000,  0.0000,  0.0000)
   2 Al     1.431891    2.480108   10.000000    ( 0.0000,  0.0000,  0.0000)
   3 Al     4.295674    2.480108   10.000000    ( 0.0000,  0.0000,  0.0000)
   4 Al     1.431891    0.826703   12.338269    ( 0.0000,  0.0000,  0.0000)
   5 Al     4.295674    0.826703   12.338269    ( 0.0000,  0.0000,  0.0000)
   6 Al     2.863782    3.306811   12.338269    ( 0.0000,  0.0000,  0.0000)
   7 Al     5.727565    3.306811   12.338269    ( 0.0000,  0.0000,  0.0000)
   8 Al    -0.000000    1.653406   14.676537    ( 0.0000,  0.0000,  0.0000)
   9 Al     2.863782    1.653406   14.676537    ( 0.0000,  0.0000,  0.0000)
  10 Al     1.431891    4.133514   14.676537    ( 0.0000,  0.0000,  0.0000)
  11 Al     4.295674    4.133514   14.676537    ( 0.0000,  0.0000,  0.0000)
  12 Al     0.000000    0.000000   17.014806    ( 0.0000,  0.0000,  0.0000)
  13 Al     2.863782    0.000000   17.014806    ( 0.0000,  0.0000,  0.0000)
  14 Al     1.431891    2.480108   17.014806    ( 0.0000,  0.0000,  0.0000)
  15 Al     4.295674    2.480108   17.014806    ( 0.0000,  0.0000,  0.0000)

Unit cell:
           periodic     x           y           z      points  spacing
  1. axis:    yes    5.727565    0.000000    0.000000    35     0.1417
  2. axis:    yes    2.863782    4.960217    0.000000    35     0.1417
  3. axis:    no     0.000000    0.000000   27.014806   160     0.1688

  Lengths:   5.727565   5.727565  27.014806
  Angles:   90.000000  90.000000  60.000000

Effective grid spacing dv^(1/3) = 0.1576

     iter     time        total  log10-change:
                         energy   eigst   dens
iter:   1 12:25:53  -400.186468
iter:   2 12:26:04  -399.883705   -2.12  -0.95
iter:   3 12:26:15  -399.769832   -2.18  -1.01
iter:   4 12:26:25  -399.843615   -1.93  -1.10
iter:   5 12:26:36  -400.261531   -1.79  -1.35
iter:   6 12:26:46  -399.904486   -2.48  -1.31
