104
Lattice="11.45512985522207 0.0 0.0 5.727564927611035 9.92043345827187 0.0 0.0 0.0 31.691342951089922" Properties=species:S:1:pos:R:3:tags:I:1:forces:R:3 energy=-412.6671142578125 free_energy=-412.6671142578125 stress="0.0068210880272090435 2.2617168724536896e-06 9.904615581035614e-07 2.2617168724536896e-06 0.006861287169158459 -3.3173710107803345e-06 9.904615581035614e-07 -3.3173710107803345e-06 0.005962226539850235" pbc="T T F"
Al       0.53480718       0.94599202       8.44225462        6      -0.03059552       0.01685614      -0.07418586
Al       3.39712690       0.94580044       8.42545926        6      -0.03100361       0.01207697      -0.08185723
Al       6.25190042       0.97355625       8.30928476        6      -0.01589715       0.01170459       0.01905196
Al       9.13045163       0.98452977       8.38251241        6      -0.03550506       0.01149963      -0.01001708
Al       1.92233828       3.42878395       8.37921446        6      -0.00881158       0.01145648      -0.04601018
Al       4.78815142       3.46550943       8.23551699        6      -0.01011319      -0.00381813       0.04411674
Al       7.66288614       3.47619208       8.31874729        6      -0.01668898      -0.00209779       0.01326762
Al      10.52634660       3.45071015       8.38738391        6      -0.02107261       0.00334951      -0.00554538
Al       3.34094817       5.96588808       8.26314420        6      -0.00635355      -0.02901557       0.01990472
Al       6.18631227       5.96666552       8.18567550        6       0.01389621      -0.01190301       0.04967250
Al       9.09193933       5.93966157       8.29883275        6      -0.02292504      -0.01446522       0.00452974
Al      11.94954015       5.92356821       8.30995400        6      -0.00997942      -0.00458242       0.00071921
Al       4.80662798       8.42557202       8.35918549        6      -0.00775502       0.00800210      -0.01518349
Al       7.69508524       8.40199824       8.31712229        6      -0.02912076       0.00730816       0.00926158
Al      10.54561226       8.38895164       8.33233946        6      -0.01328573       0.01978347      -0.00707864
Al      13.41446851       8.43021981       8.29426215        6      -0.03431743       0.00764738       0.02107979
Al      -1.01833820       1.78611766      10.73202717        5      -0.02623699       0.01376504      -0.06210891
Al       1.86287752       1.78609269      10.71880123        5      -0.01358418       0.00714234       0.00983488
Al       4.71501026       1.83123889      10.65653902        5       0.00152263      -0.01931777       0.02452826
Al       7.55313175       1.81710998      10.68645446        5       0.00808867      -0.01460951      -0.04339905
Al       0.40807829       4.27823577      10.70858865        5      -0.01891675       0.00109968      -0.02645894
Al       3.27045920       4.27511879      10.65255108        5       0.00623096       0.00305112       0.01472926
Al       6.10331253       4.30884739      10.62456265        5       0.01828863      -0.02475447       0.01398149
Al       8.95339150       4.29160222      10.69580963        5       0.03795194      -0.01842426      -0.03698758
Al       1.83422163       6.73490975      10.63020374        5      -0.00232697       0.00741312       0.01784455
Al       4.71235234       6.72140191      10.64224732        5      -0.00898640       0.01211567       0.00904034
Al       7.53979138       6.73241479      10.63380154        5       0.01875061       0.01029097       0.02203273
Al      10.40702542       6.74808723      10.63914815        5       0.00840285      -0.00154285       0.04680194
Al       3.27377193       9.21258443      10.68262690        5      -0.00427641       0.01610729      -0.01683672
Al       6.13948670       9.18941422      10.71424144        5       0.00544991       0.03874378      -0.02395506
Al       8.99633699       9.24023239      10.70174010        5      -0.00286162      -0.04061605       0.00232053
Al      11.86064980       9.23963499      10.65699760        5      -0.00247471      -0.00501036       0.00105749
Al      -1.09819486       0.16211280      12.98423528        4       0.01983647      -0.03374969       0.04974133
Al       1.76068627       0.17283615      13.00908468        4       0.04229916      -0.03226849      -0.00663646
Al       4.61012839       0.16119156      12.97795531        4       0.05705573      -0.01860935      -0.00427890
Al       7.51615323       0.15709742      12.93498336        4      -0.01802843      -0.01700690       0.10209211
Al       0.32635012       2.64426975      12.97440674        4       0.03056240      -0.00875028       0.10249783
Al       3.18738531       2.65634552      13.01069789        4       0.04524088      -0.01079900      -0.02149886
Al       6.02575050       2.61810692      12.95529584        4       0.06811050       0.05550899       0.05356438
Al       8.89082489       2.64601285      12.98485201        4       0.05120465      -0.00485216       0.04010086
Al       1.77317267       5.10156858      12.96676383        4       0.00624880       0.02110017       0.01111012
Al       4.62883477       5.12997996      12.98654531        4       0.03299835      -0.03236622      -0.01645439
Al       7.46618543       5.13776642      13.01679429        4       0.02759001      -0.03641545      -0.07671787
Al      10.32754791       5.08256566      12.99192388        4       0.05911862       0.07112499      -0.01764728
Al       3.20987288       7.57736600      12.92953433        4       0.02056661       0.00878602       0.06085882
Al       6.07789776       7.60718094      12.99722123        4       0.00314419      -0.03152835      -0.02967874
Al       8.93778198       7.57613553      13.01786842        4       0.00903650       0.01952945      -0.08432523
Al      11.82128973       7.59164380      12.93744089        4      -0.03989136      -0.00386459       0.02633919
Al       0.32428474       0.99230444      15.28603487        3       0.02303114       0.03477553      -0.04306781
Al       3.20678327       1.01478414      15.28692802        3      -0.00297816      -0.04053333       0.03347724
Al       6.06310088       0.96153259      15.26192775        3       0.03367230       0.07417246       0.00761964
Al       8.94657726       1.03217450      15.28838491        3      -0.06699571      -0.06728689      -0.08134025
Al       1.78085615       3.49279650      15.30793900        3      -0.05033550      -0.01531243      -0.02534719
Al       4.64318372       3.47345758      15.30954580        3       0.00487921       0.00203241      -0.00717747
Al       7.46140880       3.49446530      15.27977968        3       0.05148993      -0.05342295       0.00793217
Al      10.35718159       3.48378592      15.32094999        3       0.01677034       0.00620304      -0.06903026
Al       3.19186010       5.93188563      15.24989221        3       0.03507539       0.02217476       0.04100547
Al       6.07075616       5.97066819      15.29372855        3      -0.02772645      -0.06737626       0.02419896
Al       8.92562866       5.95440616      15.29570973        3       0.03896014       0.00230782       0.03510154
Al      11.78045784       5.96507878      15.23692418        3       0.01236400      -0.01286098       0.04236640
Al       4.65184471       8.39432099      15.27663116        3      -0.04971472       0.06982539      -0.05244722
Al       7.49643520       8.43473362      15.28682676        3       0.04896903       0.02143622       0.03566941
Al      10.36017308       8.44487750      15.27217730        3       0.05495417      -0.04035543       0.02559037
Al      13.24362412       8.42191106      15.25775410        3      -0.03867870       0.03272220      -0.08179481
Al      -1.09522378       1.83863774      17.58431691        2      -0.01646654       0.00553267      -0.00462556
Al       1.73694328       1.83337264      17.54963720        2       0.03202361      -0.00308235       0.01752682
Al       4.63405683       1.83912719      17.60698325        2       0.00513555      -0.01012483      -0.02936974
Al       7.47090224       1.85769706      17.54994264        2       0.03472304      -0.01243091       0.02408346
Al       0.33910992       4.37205385      17.59468409        2      -0.00303996      -0.06520547      -0.02091508
Al       3.23972806       4.30374484      17.62454871        2      -0.03372001       0.00761747      -0.04497121
Al       6.09330588       4.32971016      17.64797634        2      -0.01695291      -0.01420620      -0.03121048
Al       8.92150168       4.32320208      17.58760329        2       0.00915721       0.00181832       0.00175022
Al       1.77280475       6.77832464      17.52697674        2       0.01663604       0.02874853       0.06122069
Al       4.62473881       6.73737112      17.57495385        2       0.02679156       0.04929818       0.02451754
Al       7.51438815       6.77919136      17.58683314        2      -0.01203028       0.02010973       0.02826857
Al      10.42584848       6.79891469      17.61764734        2      -0.08521535       0.01126320      -0.03419709
Al       3.20661990       9.24589731      17.48956520        2       0.00980063       0.04016114       0.12984376
Al       6.06710810       9.28349389      17.55150741        2       0.01259765      -0.06500880       0.04503487
Al       8.97720689       9.25610924      17.57606934        2      -0.06905473       0.01599170      -0.00405964
Al      11.82435415       9.28730424      17.59458344        2      -0.04916198      -0.03741867      -0.05178566
Al      -1.14953732       0.12412617      19.86424840        1       0.00217786       0.05748719       0.02813377
Al       1.69617290       0.14571269      19.91841569        1      -0.02302922      -0.00614728      -0.03565971
Al       4.52260179       0.15964948      19.94040744        1       0.06271979       0.00051185      -0.00399458
Al       7.45901258       0.19755816      19.82928268        1      -0.00701434      -0.03539127       0.09391384
Al       0.30171923       2.67713451      19.91037809        1      -0.03165527      -0.02442502      -0.00178611
Al       3.10784497       2.63389074      19.87588757        1       0.01649356       0.01270016       0.05158575
Al       6.01346357       2.63459725      19.99400519        1      -0.01674545      -0.01146792      -0.03355854
Al       8.90416170       2.66900281      19.91127625        1      -0.02663522      -0.05132049      -0.00907950
Al       1.68916170       5.19528532      19.92010684        1       0.02296211      -0.06646512       0.00438619
Al       4.56016357       5.08925556      20.02734347        1      -0.01142801       0.00248649      -0.03408296
Al       7.43792980       5.09983883      20.02588666        1      -0.00534399       0.01911180      -0.03422717
Al      10.27202330       5.13239432      19.98134090        1       0.02258302       0.00002748      -0.03401933
Al       3.18261012       7.60937766      19.87497428        1      -0.08899856      -0.00102137      -0.00393593
Al       5.98438701       7.54753911      19.98202965        1       0.04432110       0.03490326      -0.07127529
Al       8.86922996       7.59638553      19.94543311        1      -0.02338775      -0.00590277      -0.02854530
Al      11.74191379       7.60837600      20.00573302        1       0.00469154       0.04962618      -0.03979876
C       14.52052720      11.38282912      34.61162439        0      -0.12378594      -0.18105464      -0.06518408
N       13.20477176      11.47257337      34.41447079        0       0.08545823       0.02088042       0.02461863
C       12.94798886      10.34383941      33.68581072        0      -0.17536804      -0.02467956      -0.11844440
N       13.99253778       9.53992321      33.44702205        0       0.02995784       0.15898512       0.04263848
N       15.00474399      10.24378274      34.04123102        0      -0.14724682       0.04756745      -0.01022104
H       15.15357735      12.06065220      35.17927224        0       0.11466966       0.19318245       0.07856248
H       11.95999779      10.09987165      33.28534042        0       0.05435479      -0.02724774       0.04558821
H       15.94148521       9.86703305      34.12577607        0       0.15299723      -0.16387159      -0.08258861
