104
Lattice="11.45512985522207 0.0 0.0 5.727564927611035 9.92043345827187 0.0 0.0 0.0 31.691342951089922" Properties=species:S:1:pos:R:3:tags:I:1:forces:R:3 energy=-413.13482666015625 free_energy=-413.13482666015625 stress="0.008121556602418423 1.3113021850585938e-06 1.6293488442897797e-06 1.3113021850585938e-06 0.008097678422927856 -2.985820174217224e-06 1.6293488442897797e-06 -2.985820174217224e-06 0.007362687960267067" pbc="T T F"
Al       1.43189123       0.82670279      10.00000000        6      -0.00066328       0.00478768      -0.00065758
Al       4.29567370       0.82670279      10.00000000        6      -0.00107826       0.00504682      -0.00201780
Al       7.15945616       0.82670279      10.00000000        6      -0.00027871       0.00513919      -0.00110973
Al      10.02323862       0.82670279      10.00000000        6      -0.00140355       0.00300187       0.00171608
Al       2.86378246       3.30681115      10.00000000        6      -0.00116441       0.00389002      -0.00141896
Al       5.72756493       3.30681115      10.00000000        6      -0.00053430       0.00468664      -0.00071219
Al       8.59134739       3.30681115      10.00000000        6      -0.00010890       0.00482265      -0.00047356
Al      11.45512986       3.30681115      10.00000000        6      -0.00069644       0.00535381      -0.00104038
Al       4.29567370       5.78691952      10.00000000        6      -0.00074208       0.00366248      -0.00095841
Al       7.15945616       5.78691952      10.00000000        6      -0.00009458       0.00405123      -0.00081455
Al      10.02323862       5.78691952      10.00000000        6      -0.00081112       0.00393679      -0.00156233
Al      12.88702109       5.78691952      10.00000000        6      -0.00059588       0.00511655      -0.00089788
Al       5.72756493       8.26702788      10.00000000        6      -0.00086350       0.00506929      -0.00190845
Al       8.59134739       8.26702788      10.00000000        6      -0.00076185       0.00544819      -0.00100684
Al      11.45512986       8.26702788      10.00000000        6      -0.00099823       0.00560547      -0.00209451
Al      14.31891232       8.26702788      10.00000000        6      -0.00067600       0.00470636      -0.00156277
Al      -0.00000000       1.65340558      12.33826859        5      -0.00140032      -0.00187226       0.02569561
Al       2.86378246       1.65340558      12.33826859        5      -0.00166494      -0.00130631       0.02445068
Al       5.72756493       1.65340558      12.33826859        5      -0.00164065      -0.00164054       0.02553389
Al       8.59134739       1.65340558      12.33826859        5      -0.00169615      -0.00156941       0.02554550
Al       1.43189123       4.13351394      12.33826859        5      -0.00100013      -0.00190256       0.02517140
Al       4.29567370       4.13351394      12.33826859        5      -0.00081095      -0.00194736       0.02447351
Al       7.15945616       4.13351394      12.33826859        5      -0.00141152      -0.00153568       0.02478213
Al      10.02323862       4.13351394      12.33826859        5      -0.00130633      -0.00181630       0.02500012
Al       2.86378246       6.61362231      12.33826859        5      -0.00091556      -0.00175762       0.02483062
Al       5.72756493       6.61362231      12.33826859        5      -0.00135902      -0.00170656       0.02530209
Al       8.59134739       6.61362231      12.33826859        5      -0.00146029      -0.00152652       0.02537029
Al      11.45512986       6.61362231      12.33826859        5      -0.00182450      -0.00176748       0.02600508
Al       4.29567370       9.09373067      12.33826859        5      -0.00131959      -0.00157933       0.02540890
Al       7.15945616       9.09373067      12.33826859        5      -0.00141825      -0.00148241       0.02581268
Al      10.02323862       9.09373067      12.33826859        5      -0.00138323      -0.00162968       0.02543620
Al      12.88702109       9.09373067      12.33826859        5      -0.00148836      -0.00142677       0.02587291
Al       0.00000000       0.00000000      14.67653718        4      -0.00103920       0.00041803       0.00027775
Al       2.86378246       0.00000000      14.67653718        4      -0.00159102       0.00064556       0.00004643
Al       5.72756493       0.00000000      14.67653718        4      -0.00047691       0.00034846       0.00018782
Al       8.59134739       0.00000000      14.67653718        4      -0.00095792       0.00042261       0.00015951
Al       1.43189123       2.48010836      14.67653718        4      -0.00066875       0.00034383       0.00025865
Al       4.29567370       2.48010836      14.67653718        4      -0.00060045       0.00040043       0.00013871
Al       7.15945616       2.48010836      14.67653718        4      -0.00121185       0.00030545       0.00017665
Al      10.02323862       2.48010836      14.67653718        4      -0.00172472       0.00029196      -0.00015119
Al       2.86378246       4.96021673      14.67653718        4      -0.00063658       0.00021545       0.00001822
Al       5.72756493       4.96021673      14.67653718        4      -0.00065412       0.00045470       0.00027255
Al       8.59134739       4.96021673      14.67653718        4      -0.00185654       0.00077552      -0.00005280
Al      11.45512986       4.96021673      14.67653718        4      -0.00165846       0.00063466       0.00038123
Al       4.29567370       7.44032509      14.67653718        4      -0.00059316       0.00027356       0.00022422
Al       7.15945616       7.44032509      14.67653718        4      -0.00116219       0.00048805       0.00020274
Al      10.02323862       7.44032509      14.67653718        4      -0.00165147       0.00048555       0.00037051
Al      12.88702109       7.44032509      14.67653718        4      -0.00078897       0.00025429      -0.00001168
Al       1.37886724       0.84538014      17.01392357        3      -0.00001405       0.00015329      -0.00019584
Al       4.24335830       0.84316887      17.00229038        3       0.00081825       0.00015858       0.00136139
Al       7.11199200       0.83898188      17.01690455        3      -0.00026864       0.00025121      -0.00073729
Al       9.97064636       0.83831292      17.01137978        3      -0.00007977       0.00012572       0.00014802
Al       2.82401194       3.32117599      17.01055362        3      -0.00207750      -0.00027272       0.00009518
Al       5.68719982       3.32805853      17.00948501        3      -0.00070546      -0.00034270       0.00005280
Al       8.53717935       3.32424147      17.00434222        3       0.00004659      -0.00003958       0.00047970
Al      11.39436036       3.31589500      17.00368963        3       0.00243603       0.00137684       0.00111758
Al       4.24562010       5.79457215      17.01030454        3       0.00039021       0.00076351       0.00007608
Al       7.11502614       5.81358628      17.01744297        3      -0.00256619      -0.00143298      -0.00226890
Al       9.96176792       5.79845731      17.01222540        3       0.00355285       0.00162598      -0.00087702
Al      12.84388411       5.79388336      17.00660823        3      -0.00447603       0.00056305       0.00116347
Al       5.67800823       8.28498288      17.01095042        3      -0.00026830       0.00007077       0.00010489
Al       8.53820277       8.28805737      17.01026018        3       0.00020195       0.00012333       0.00003292
Al      11.41139484       8.27841913      17.00238248        3      -0.00219610       0.00019647       0.00217221
Al      14.26889414       8.27052206      17.00826176        3       0.00002527       0.00050474       0.00040941
Al      -0.11423986       1.68744295      19.35307436        2       0.00061709      -0.00147491      -0.03303839
Al       2.74959255       1.68252294      19.35307436        2       0.00339533       0.00212862      -0.03656779
Al       5.62531856       1.69213446      19.35307436        2      -0.00347899       0.00006545      -0.03410457
Al       8.47540057       1.69411336      19.35307436        2       0.00294953      -0.00140984      -0.03223772
Al       1.32300562       4.15334031      19.35307436        2      -0.00065991       0.00129378      -0.03712151
Al       4.19031510       4.16969803      19.35307436        2      -0.00199330      -0.00120658      -0.03235220
Al       7.04949022       4.17557788      19.35307436        2      -0.00167032      -0.00085895      -0.03594766
Al       9.91424678       4.16634198      19.35307436        2      -0.00245785      -0.00170371      -0.03297654
Al       2.74610936       6.63524809      19.35307436        2       0.00055104       0.00407313      -0.03044145
Al       5.61881572       6.65333050      19.35307436        2      -0.00104989      -0.00084629      -0.03135421
Al       8.49136820       6.66364590      19.35307436        2      -0.00382974      -0.00326336      -0.03483930
Al      11.34230457       6.63439083      19.35307436        2       0.00108793       0.00374271      -0.03234710
Al       4.18071081       9.12559235      19.35307436        2       0.00103628      -0.00002070      -0.03280069
Al       7.05172615       9.13143838      19.35307436        2      -0.00124670      -0.00069421      -0.03465972
Al       9.91403484       9.13411841      19.35307436        2       0.00291541      -0.00108158      -0.03646942
Al      12.77317533       9.13094425      19.35307436        2       0.00114011      -0.00225874      -0.03323438
Al      -0.20864283       0.05048416      21.69134295        1      -0.00312973       0.00100923      -0.00258286
Al       2.65660759       0.05807164      21.69134295        1       0.00031870      -0.00096044      -0.00062655
Al       5.52170916       0.06999704      21.69134295        1      -0.00225394      -0.00057510      -0.00063170
Al       8.37241446       0.06497257      21.69134295        1       0.00054898       0.00083854      -0.00252932
Al       1.20198221       2.54729148      21.69134295        1       0.00064546      -0.00134129      -0.00101905
Al       4.06715738       2.54083017      21.69134295        1       0.00275978       0.00154084      -0.00311562
Al       6.95573280       2.57029725      21.69134295        1       0.00116496      -0.00291459      -0.00120867
Al       9.81884623       2.53685578      21.69134295        1       0.00021022      -0.00141456      -0.01329012
Al       2.60484009       5.01766505      21.69134295        1       0.00116179       0.00037359       0.00007121
Al       5.51512067       5.02259004      21.69134295        1       0.00017438       0.00190052       0.00009147
Al       8.39384691       5.04848189      21.69134295        1      -0.00129180      -0.00497966      -0.04725645
Al      11.22532199       5.01596016      21.69134295        1       0.00187995      -0.00349628      -0.03133143
Al       4.05583541       7.49307719      21.69134295        1       0.00282747       0.00015096      -0.00343689
Al       6.96327423       7.49641606      21.69134295        1       0.00012499       0.00029711      -0.00246582
Al       9.82704973       7.51369857      21.69134295        1      -0.00058102      -0.00009131      -0.04280755
Al      12.64121581       7.50646871      21.69134295        1       0.00235053      -0.00167258       0.00060653
C        9.34279794       6.64508110      24.73588972        0       0.00302563      -0.00604584       0.08477739
N        8.44676898       5.64343993      24.75856364        0       0.00411813      -0.00196115       0.01930980
C        9.25134539       4.53835799      24.68500445        0       0.00756931      -0.00473072       0.16202027
N       10.57425310       4.77902394      24.62075924        0       0.00287051       0.00194774       0.01078634
N       10.60005979       6.14342609      24.65343221        0      -0.00217962      -0.00086798       0.13452542
H        9.13815613       7.71512989      24.77882429        0      -0.00284856      -0.00387961       0.01315452
H        8.88450327       3.50918792      24.67842322        0       0.00329926       0.00232376       0.01677828
H       11.49504579       6.63610089      24.61984683        0      -0.00212040       0.00011208      -0.01260064
