&FCI NORB=   5,NELEC=   2,MS2= 1,
  ORBSYM=1,1,1,1,1,
  ISYM=0,
 /
 7.4193630155007351E-02   1   1   1   1
 5.0540077369717580E-04   1   1   1   2
-2.6528317222139345E-04   1   1   1   3
-5.1037426214807057E-04   1   1   1   4
 3.5980271539643328E-04   1   1   1   5
 7.2909277701373412E-02   1   1   2   2
 2.2514153701953300E-04   1   1   2   3
 4.1959748863903161E-03   1   1   2   4
 4.5896657093013514E-05   1   1   2   5
 7.3558941371493797E-02   1   1   3   3
-1.0220006280729945E-04   1   1   3   4
 2.4258624936565349E-04   1   1   3   5
 4.2734507126404454E-02   1   1   4   4
 2.8476451139308381E-03   1   1   4   5
 6.9370642476672170E-02   1   1   5   5
 1.3697944389315846E-03   1   2   1   2
-2.6158136445875570E-04   1   2   1   3
 1.1806295114408271E-05   1   2   1   4
-9.5247049296764660E-05   1   2   1   5
 6.0459482517008023E-04   1   2   2   2
-9.5014841958026839E-06   1   2   2   3
 3.5686029898199874E-04   1   2   2   4
 4.8024549762267272E-05   1   2   2   5
 6.6264243492096140E-04   1   2   3   3
-7.7270127914024842E-05   1   2   3   4
 5.1694149491135145E-05   1   2   3   5
-1.0988349702386725E-03   1   2   4   4
 1.0838388827761331E-04   1   2   4   5
 2.7162045255821056E-04   1   2   5   5
 1.5368658921760382E-03   1   3   1   3
 8.1368989769991753E-05   1   3   1   4
 3.5819844571907656E-04   1   3   1   5
-3.5681946727429882E-04   1   3   2   2
 4.9934591795154453E-05   1   3   2   3
-2.5937565766802806E-04   1   3   2   4
-1.5616321931496768E-04   1   3   2   5
-2.9399562084615711E-04   1   3   3   3
 5.4101459052754667E-05   1   3   3   4
 8.3443599621600169E-05   1   3   3   5
 8.8002280830739416E-04   1   3   4   4
 2.2933549798818548E-05   1   3   4   5
 1.7845563043290206E-04   1   3   5   5
 1.0597574872107933E-03   1   4   1   4
-4.6763481587678942E-05   1   4   1   5
-3.3755992277498969E-04   1   4   2   2
 8.5905569777185663E-05   1   4   2   3
-4.2600055531695082E-06   1   4   2   4
 9.4989938716080191E-05   1   4   2   5
-2.0518706142230733E-04   1   4   3   3
 2.9616572395938708E-05   1   4   3   4
-1.6902075017026857E-04   1   4   3   5
 2.9269714491245879E-04   1   4   4   4
-9.7157379907366936E-05   1   4   4   5
-2.3798385424276508E-04   1   4   5   5
 1.4214294571842940E-03   1   5   1   5
 3.2057041420886448E-04   1   5   2   2
 2.1525269412120702E-04   1   5   2   3
 3.1584646358908530E-04   1   5   2   4
-1.7365198859864566E-04   1   5   2   5
 4.3395143730267684E-04   1   5   3   3
-3.2810394444088536E-05   1   5   3   4
 3.8365306822042250E-04   1   5   3   5
-5.3831615500338258E-04   1   5   4   4
 1.6482395698166820E-04   1   5   4   5
 2.3725637730105965E-04   1   5   5   5
 7.8791969029391853E-02   2   2   2   2
 5.9900139794173961E-04   2   2   2   3
 5.4063150163511783E-03   2   2   2   4
 4.2310429457342700E-05   2   2   2   5
 7.6700781208414295E-02   2   2   3   3
-5.2428289980334906E-04   2   2   3   4
 3.8094622993702489E-05   2   2   3   5
 4.0531006138611853E-02   2   2   4   4
 3.6100376700727321E-03   2   2   4   5
 7.1506431775409190E-02   2   2   5   5
 1.4578255057624053E-03   2   3   2   3
 2.8873298529229148E-04   2   3   2   4
-5.0052657675910559E-05   2   3   2   5
 5.2090948683648395E-04   2   3   3   3
 1.6857238861607019E-06   2   3   3   4
-1.8696162080456246E-05   2   3   3   5
-6.5465452085933598E-04   2   3   4   4
 8.8537870950201956E-05   2   3   4   5
 2.3273585398988190E-04   2   3   5   5
 3.3851360680562477E-03   2   4   2   4
 3.3872773900079570E-05   2   4   2   5
 5.5174699876252408E-03   2   4   3   3
-4.3888114461761700E-04   2   4   3   4
 1.6425682292727780E-04   2   4   3   5
-9.2508766307076527E-03   2   4   4   4
 1.6073238783804445E-03   2   4   4   5
 4.0837381368523419E-03   2   4   5   5
 1.5852045974475179E-03   2   5   2   5
-1.8194133580514050E-06   2   5   3   3
 2.9884573464385703E-05   2   5   3   4
-1.0102897730997146E-04   2   5   3   5
 5.3078237078699837E-04   2   5   4   4
 5.3147112896285722E-05   2   5   4   5
-2.6831594163723231E-04   2   5   5   5
 8.0297348515843275E-02   3   3   3   3
-6.4517264477377274E-04   3   3   3   4
 1.7874739147664907E-04   3   3   3   5
 3.9128614171091397E-02   3   3   4   4
 3.5248388783515844E-03   3   3   4   5
 7.1973798114195561E-02   3   3   5   5
 7.7796184600971495E-04   3   4   3   4
-4.1958438933300798E-05   3   4   3   5
 1.0378877455975702E-03   3   4   4   4
-2.6302579463241267E-04   3   4   4   5
-1.8699497517485851E-04   3   4   5   5
 1.4558630877239446E-03   3   5   3   5
-6.7877373664378322E-04   3   5   4   4
 2.2668152653144990E-04   3   5   4   5
 2.2145629952003998E-04   3   5   5   5
 8.9054870441707512E-02   4   4   4   4
-5.2946210687341245E-03   4   4   4   5
 4.1361451168105745E-02   4   4   5   5
 1.7293868679946747E-03   4   5   4   5
 3.0997445156857777E-03   4   5   5   5
 7.1670946189012222E-02   5   5   5   5
-6.9034678174013681E-02   1   1   0   0
-1.0511726433034350E-03   1   2   0   0
 8.0561582448897078E-04   1   3   0   0
 1.5515258708011150E-04   1   4   0   0
-6.7583995633779381E-04   1   5   0   0
-1.4537677126565524E-01   2   2   0   0
-1.4042166909854874E-03   2   3   0   0
-1.0879293564349315E-02   2   4   0   0
-3.0178594614797404E-04   2   5   0   0
-1.4588151832514917E-01   3   3   0   0
 1.4357452357916063E-03   3   4   0   0
-2.4455213158740198E-04   3   5   0   0
-6.6329369647957992E-02   4   4   0   0
-6.5356077471441952E-03   4   5   0   0
-1.2163060372575239E-01   5   5   0   0
-2.5156935101005939E+02   0   0   0   0
