 DBCSR| CPU Multiplication driver                                           XSMM (U)
 DBCSR| Multrec recursion limit                                              512 (U)
 DBCSR| Multiplication stack size                                           1000 (D)
 DBCSR| Maximum elements for images                                    UNLIMITED (U)
 DBCSR| Multiplicative factor virtual images                                   1 (U)
 DBCSR| Use multiplication densification                                       T (D)
 DBCSR| Multiplication size stacks                                             3 (U)
 DBCSR| Use memory pool for CPU allocation                                     F (U)
 DBCSR| Number of 3D layers                                               SINGLE (U)
 DBCSR| Use MPI memory allocation                                              F (U)
 DBCSR| Use RMA algorithm                                                      F (U)
 DBCSR| Use Communication thread                                               T (U)
 DBCSR| Communication thread load                                             87 (D)
 DBCSR| MPI: My process id                                                     0
 DBCSR| MPI: Number of processes                                              48
 DBCSR| OMP: Current number of threads                                         1
 DBCSR| OMP: Max number of threads                                             1
 DBCSR| Split modifier for TAS multiplication algorithm                  1.0E+00 (U)


  **** **** ******  **  PROGRAM STARTED AT               2024-11-02 08:49:20.390
 ***** ** ***  *** **   PROGRAM STARTED ON                          e4eb1e04f0d6
 **    ****   ******    PROGRAM STARTED BY                             <unknown>
 ***** **    ** ** **   PROGRAM PROCESS ID                                   587
  **** **  *******  **  PROGRAM STARTED IN                                  /mnt

 CP2K| version string:                                       CP2K version 2024.3
 CP2K| source code revision number:                                  git:6712648
 CP2K| cp2kflags: omp libint fftw3 libxc libgrpp pexsi elpa parallel scalapack c
 CP2K|            osma quip xsmm plumed2 spglib libdftd4 sirius libvori libbqb l
 CP2K|            libtorch libvdwxc hdf5
 CP2K| is freely available from                            https://www.cp2k.org/
 CP2K| Program compiled at                          Mon Sep  9 14:39:12 UTC 2024
 CP2K| Program compiled on                                          5c005b387e2b
 CP2K| Program compiled for                                                local
 CP2K| Data directory path                                        /opt/cp2k/data
 CP2K| Input file name                                    Al111_active_space.inp

 GLOBAL| Force Environment number                                              1
 GLOBAL| Basis set file name                                        BASIS_MOLOPT
 GLOBAL| Potential file name                                           POTENTIAL
 GLOBAL| MM Potential file name                                     MM_POTENTIAL
 GLOBAL| Coordinate file name           al_slab_with_Triazole-3-thiol_4x4x6_v10.
 GLOBAL| Method name                                                        CP2K
 GLOBAL| Project name                           Al111_4x4_active_space_adsorbate
 GLOBAL| Run type                                                         ENERGY
 GLOBAL| FFT library                                                       FFTW3
 GLOBAL| Diagonalization library                                            ELPA
 GLOBAL| DGEMM library                                                      BLAS
 GLOBAL| Minimum number of eigenvectors for ELPA usage                        16
 GLOBAL| Orthonormality check for eigenvectors                          DISABLED
 GLOBAL| Matrix multiplication library                                     COSMA
 GLOBAL| All-to-all communication in single precision                          F
 GLOBAL| FFTs using library dependent lengths                                  F
 GLOBAL| Grid backend                                                       AUTO
 GLOBAL| Global print level                                               MEDIUM
 GLOBAL| MPI I/O enabled                                                       T
 GLOBAL| Total number of message passing processes                            48
 GLOBAL| Number of threads for this process                                    1
 GLOBAL| This output is from process                                           0
 GLOBAL| Stack size for threads created by OpenMP (OMP_STACKSIZE)            16M
 GLOBAL| CPU model name                                  AMD EPYC 7R13 Processor
 GLOBAL| CPUID                                                              1002
 GLOBAL| Compiled for CPUID                                                    0

 *** HINT in environment.F:921 :: The compiler target flags (generic) used ***
 *** to build this binary cannot exploit all extensions of this CPU model  ***
 *** (x86_avx2). Consider compiler target flags as part of FCFLAGS and     ***
 *** CFLAGS (ARCH file).                                                   ***


 MEMORY| system memory details [Kb]
 MEMORY|                        rank 0           min           max       average
 MEMORY| MemTotal            387819248     387819248     387819248     387819248
 MEMORY| MemFree             376697856     376697856     376697856     376697856
 MEMORY| Buffers                132452        132452        132452        132452
 MEMORY| Cached                1571704       1571704       1571704       1571704
 MEMORY| Slab                   716696        716696        716696        716696
 MEMORY| SReclaimable           262424        262424        262424        262424
 MEMORY| MemLikelyFree       378664436     378664436     378664436     378664436


 *** Fundamental physical constants (SI units) ***

 *** Literature: B. J. Mohr and B. N. Taylor,
 ***             CODATA recommended values of the fundamental physical
 ***             constants: 2006, Web Version 5.1
 ***             http://physics.nist.gov/constants

 Speed of light in vacuum [m/s]                             2.99792458000000E+08
 Magnetic constant or permeability of vacuum [N/A**2]       1.25663706143592E-06
 Electric constant or permittivity of vacuum [F/m]          8.85418781762039E-12
 Planck constant (h) [J*s]                                  6.62606896000000E-34
 Planck constant (h-bar) [J*s]                              1.05457162825177E-34
 Elementary charge [C]                                      1.60217648700000E-19
 Electron mass [kg]                                         9.10938215000000E-31
 Electron g factor [ ]                                     -2.00231930436220E+00
 Proton mass [kg]                                           1.67262163700000E-27
 Fine-structure constant                                    7.29735253760000E-03
 Rydberg constant [1/m]                                     1.09737315685270E+07
 Avogadro constant [1/mol]                                  6.02214179000000E+23
 Boltzmann constant [J/K]                                   1.38065040000000E-23
 Atomic mass unit [kg]                                      1.66053878200000E-27
 Bohr radius [m]                                            5.29177208590000E-11

 *** Conversion factors ***

 [u] -> [a.u.]                                              1.82288848426455E+03
 [Angstrom] -> [Bohr] = [a.u.]                              1.88972613288564E+00
 [a.u.] = [Bohr] -> [Angstrom]                              5.29177208590000E-01
 [a.u.] -> [s]                                              2.41888432650478E-17
 [a.u.] -> [fs]                                             2.41888432650478E-02
 [a.u.] -> [J]                                              4.35974393937059E-18
 [a.u.] -> [N]                                              8.23872205491840E-08
 [a.u.] -> [K]                                              3.15774647902944E+05
 [a.u.] -> [kJ/mol]                                         2.62549961709828E+03
 [a.u.] -> [kcal/mol]                                       6.27509468713739E+02
 [a.u.] -> [Pa]                                             2.94210107994716E+13
 [a.u.] -> [bar]                                            2.94210107994716E+08
 [a.u.] -> [atm]                                            2.90362800883016E+08
 [a.u.] -> [eV]                                             2.72113838565563E+01
 [a.u.] -> [Hz]                                             6.57968392072181E+15
 [a.u.] -> [1/cm] (wave numbers)                            2.19474631370540E+05
 [a.u./Bohr**2] -> [1/cm]                                   5.14048714338585E+03
 

 CELL_TOP| Volume [angstrom^3]:                                      4545.594139
 CELL_TOP| Vector a [angstrom    11.455     0.000     0.000   |a| =    11.455130
 CELL_TOP| Vector b [angstrom     5.728     9.920     0.000   |b| =    11.455130
 CELL_TOP| Vector c [angstrom     0.000     0.000    40.000   |c| =    40.000000
 CELL_TOP| Angle (b,c), alpha [degree]:                                90.000000
 CELL_TOP| Angle (a,c), beta  [degree]:                                90.000000
 CELL_TOP| Angle (a,b), gamma [degree]:                                60.000000
 CELL_TOP| Numerically orthorhombic:                                          NO
 CELL_TOP| Periodicity                                                       XYZ

 GENERATE|  Preliminary Number of Bonds generated:                             0
 GENERATE|  Achieved consistency in connectivity generation.

 CELL| Volume [angstrom^3]:                                          4545.594139
 CELL| Vector a [angstrom]:      11.455     0.000     0.000   |a| =    11.455130
 CELL| Vector b [angstrom]:       5.728     9.920     0.000   |b| =    11.455130
 CELL| Vector c [angstrom]:       0.000     0.000    40.000   |c| =    40.000000
 CELL| Angle (b,c), alpha [degree]:                                    90.000000
 CELL| Angle (a,c), beta  [degree]:                                    90.000000
 CELL| Angle (a,b), gamma [degree]:                                    60.000000
 CELL| Numerically orthorhombic:                                              NO
 CELL| Periodicity                                                           XYZ

 CELL_REF| Volume [angstrom^3]:                                      4545.594139
 CELL_REF| Vector a [angstrom    11.455     0.000     0.000   |a| =    11.455130
 CELL_REF| Vector b [angstrom     5.728     9.920     0.000   |b| =    11.455130
 CELL_REF| Vector c [angstrom     0.000     0.000    40.000   |c| =    40.000000
 CELL_REF| Angle (b,c), alpha [degree]:                                90.000000
 CELL_REF| Angle (a,c), beta  [degree]:                                90.000000
 CELL_REF| Angle (a,b), gamma [degree]:                                60.000000
 CELL_REF| Numerically orthorhombic:                                          NO
 CELL_REF| Periodicity                                                       XYZ

 *******************************************************************************
 *******************************************************************************
 **                                                                           **
 **     #####                         ##              ##                      **
 **    ##   ##            ##          ##              ##                      **
 **   ##     ##                       ##            ######                    **
 **   ##     ##  ##   ##  ##   #####  ##  ##   ####   ##    #####    #####    **
 **   ##     ##  ##   ##  ##  ##      ## ##   ##      ##   ##   ##  ##   ##   **
 **   ##  ## ##  ##   ##  ##  ##      ####     ###    ##   ######   ######    **
 **    ##  ###   ##   ##  ##  ##      ## ##      ##   ##   ##       ##        **
 **     #######   #####   ##   #####  ##  ##  ####    ##    #####   ##        **
 **           ##                                                    ##        **
 **                                                                           **
 **                                                ... make the atoms dance   **
 **                                                                           **
 **            Copyright (C) by CP2K developers group (2000-2024)             **
 **                      J. Chem. Phys. 152, 194103 (2020)                    **
 **                                                                           **
 *******************************************************************************

 DFT| Spin restricted Kohn-Sham (RKS) calculation                            RKS
 DFT| Multiplicity                                                             1
 DFT| Number of spin states                                                    1
 DFT| Charge                                                                   0
 DFT| Self-interaction correction (SIC)                                       NO
 DFT| Cutoffs: density                                              1.000000E-10
 DFT|          gradient                                             1.000000E-10
 DFT|          tau                                                  1.000000E-10
 DFT|          cutoff_smoothing_range                               0.000000E+00
 DFT| XC density smoothing                                                  NONE
 DFT| XC derivatives                                                          PW

 FUNCTIONAL| PBE:
 FUNCTIONAL| J.P.Perdew, K.Burke, M.Ernzerhof, Phys. Rev. Letter, vol. 77, n 18,
 FUNCTIONAL|  pp. 3865-3868, (1996) {spin unpolarized}                          

 vdW POTENTIAL|                                                   Pair Potential
 vdW POTENTIAL|          DFT-D3 (Version 3.1)
 vdW POTENTIAL|          Potential Form: S. Grimme et al, JCP 132: 154104 (2010)
 vdW POTENTIAL|          Zero Damping
 vdW POTENTIAL|          Cutoff Radius [Bohr]:                             20.00
 vdW POTENTIAL|          s6 Scaling Factor:                               1.0000
 vdW POTENTIAL|          sr6 Scaling Factor:                              1.2170
 vdW POTENTIAL|          s8 Scaling Factor:                               0.7220
 vdW POTENTIAL|          Cutoff for CN calculation:                   0.1000E-05

 QS| Method:                                                                 GPW
 QS| Density plane wave grid type                        NON-SPHERICAL FULLSPACE
 QS| Number of grid levels:                                                    5
 QS| Density cutoff [a.u.]:                                                250.0
 QS| Multi grid cutoff [a.u.]: 1) grid level                               250.0
 QS|                           2) grid level                                83.3
 QS|                           3) grid level                                27.8
 QS|                           4) grid level                                 9.3
 QS|                           5) grid level                                 3.1
 QS| Grid level progression factor:                                          3.0
 QS| Relative density cutoff [a.u.]:                                        30.0
 QS| Interaction thresholds: eps_pgf_orb:                                1.0E-05
 QS|                         eps_filter_matrix:                          0.0E+00
 QS|                         eps_core_charge:                            1.0E-12
 QS|                         eps_rho_gspace:                             1.0E-10
 QS|                         eps_rho_rspace:                             1.0E-10
 QS|                         eps_gvg_rspace:                             1.0E-05
 QS|                         eps_ppl:                                    1.0E-02
 QS|                         eps_ppnl:                                   1.0E-07


 ATOMIC KIND INFORMATION

  1. Atomic kind: Al                                    Number of atoms:      96

     Orbital Basis Set                                        DZVP-MOLOPT-SR-GTH

       Number of orbital shell sets:                                           1
       Number of orbital shells:                                               5
       Number of primitive Cartesian functions:                                4
       Number of Cartesian basis functions:                                   14
       Number of spherical basis functions:                                   13
       Norm type:                                                              2

       Normalised Cartesian orbitals:

                        Set   Shell   Orbital            Exponent    Coefficient

                          1       1    2s                1.212902       0.147703
                                                         0.454181       0.176942
                                                         0.242419      -0.255412
                                                         0.078268      -0.047918

                          1       2    3s                1.212902      -0.205401
                                                         0.454181      -0.282784
                                                         0.242419       0.451246
                                                         0.078268      -0.188270

                          1       3    3px               1.212902       0.054477
                                                         0.454181       0.028713
                                                         0.242419      -0.164201
                                                         0.078268      -0.027375
                          1       3    3py               1.212902       0.054477
                                                         0.454181       0.028713
                                                         0.242419      -0.164201
                                                         0.078268      -0.027375
                          1       3    3pz               1.212902       0.054477
                                                         0.454181       0.028713
                                                         0.242419      -0.164201
                                                         0.078268      -0.027375

                          1       4    4px               1.212902      -0.161995
                                                         0.454181       0.034524
                                                         0.242419       0.284421
                                                         0.078268      -0.077718
                          1       4    4py               1.212902      -0.161995
                                                         0.454181       0.034524
                                                         0.242419       0.284421
                                                         0.078268      -0.077718
                          1       4    4pz               1.212902      -0.161995
                                                         0.454181       0.034524
                                                         0.242419       0.284421
                                                         0.078268      -0.077718

                          1       5    4dx2              1.212902       0.283929
                                                         0.454181       0.086552
                                                         0.242419       0.083045
                                                         0.078268       0.004803
                          1       5    4dxy              1.212902       0.491779
                                                         0.454181       0.149912
                                                         0.242419       0.143839
                                                         0.078268       0.008319
                          1       5    4dxz              1.212902       0.491779
                                                         0.454181       0.149912
                                                         0.242419       0.143839
                                                         0.078268       0.008319
                          1       5    4dy2              1.212902       0.283929
                                                         0.454181       0.086552
                                                         0.242419       0.083045
                                                         0.078268       0.004803
                          1       5    4dyz              1.212902       0.491779
                                                         0.454181       0.149912
                                                         0.242419       0.143839
                                                         0.078268       0.008319
                          1       5    4dz2              1.212902       0.283929
                                                         0.454181       0.086552
                                                         0.242419       0.083045
                                                         0.078268       0.004803

       Atomic covalent radius [Angstrom]:                                  1.180

       Atomic van der Waals radius [Angstrom]:                             1.840

     GTH Potential information for                                    GTH-PBE-q3

       Description:                       Goedecker-Teter-Hutter pseudopotential
                                           Goedecker et al., PRB 54, 1703 (1996)
                                          Hartwigsen et al., PRB 58, 3641 (1998)
                                                      Krack, TCA 114, 145 (2005)

       Gaussian exponent of the core charge distribution:               2.469136
       Electronic configuration (s p d ...):                               2   1

       Parameters of the local part of the GTH pseudopotential:

                          rloc        C1          C2          C3          C4
                        0.450000   -7.554761

       Parameters of the non-local part of the GTH pseudopotential:

                   l      r(l)      h(i,j,l)

                   0    0.487435    6.959938   -1.888836
                                   -1.888836    2.438477
                   1    0.562189    1.865299

  2. Atomic kind: C                                     Number of atoms:       2

     Orbital Basis Set                                           DZVP-MOLOPT-GTH

       Number of orbital shell sets:                                           1
       Number of orbital shells:                                               5
       Number of primitive Cartesian functions:                                7
       Number of Cartesian basis functions:                                   14
       Number of spherical basis functions:                                   13
       Norm type:                                                              2

       Normalised Cartesian orbitals:

                        Set   Shell   Orbital            Exponent    Coefficient

                          1       1    2s                6.132625      -0.263661
                                                         2.625196      -0.231112
                                                         1.045457       0.042712
                                                         0.478316       0.306085
                                                         0.178617       0.065483
                                                         0.075145       0.000568
                                                         0.030287       0.000417

                          1       2    3s                6.132625       0.131937
                                                         2.625196       0.414269
                                                         1.045457      -0.593590
                                                         0.478316       0.644922
                                                         0.178617       0.069203
                                                         0.075145      -0.145101
                                                         0.030287       0.008247

                          1       3    3px               6.132625       0.562677
                                                         2.625196       0.633910
                                                         1.045457       0.379157
                                                         0.478316       0.235193
                                                         0.178617       0.052379
                                                         0.075145       0.003677
                                                         0.030287       0.000105
                          1       3    3py               6.132625       0.562677
                                                         2.625196       0.633910
                                                         1.045457       0.379157
                                                         0.478316       0.235193
                                                         0.178617       0.052379
                                                         0.075145       0.003677
                                                         0.030287       0.000105
                          1       3    3pz               6.132625       0.562677
                                                         2.625196       0.633910
                                                         1.045457       0.379157
                                                         0.478316       0.235193
                                                         0.178617       0.052379
                                                         0.075145       0.003677
                                                         0.030287       0.000105

                          1       4    4px               6.132625      -0.472364
                                                         2.625196      -0.221326
                                                         1.045457      -0.481781
                                                         0.478316       0.135466
                                                         0.178617       0.072281
                                                         0.075145       0.024920
                                                         0.030287       0.002706
                          1       4    4py               6.132625      -0.472364
                                                         2.625196      -0.221326
                                                         1.045457      -0.481781
                                                         0.478316       0.135466
                                                         0.178617       0.072281
                                                         0.075145       0.024920
                                                         0.030287       0.002706
                          1       4    4pz               6.132625      -0.472364
                                                         2.625196      -0.221326
                                                         1.045457      -0.481781
                                                         0.478316       0.135466
                                                         0.178617       0.072281
                                                         0.075145       0.024920
                                                         0.030287       0.002706

                          1       5    4dx2              6.132625       0.874783
                                                         2.625196       0.375772
                                                         1.045457       0.653959
                                                         0.478316       0.191007
                                                         0.178617       0.018656
                                                         0.075145       0.003649
                                                         0.030287      -0.000011
                          1       5    4dxy              6.132625       1.515169
                                                         2.625196       0.650856
                                                         1.045457       1.132690
                                                         0.478316       0.330834
                                                         0.178617       0.032314
                                                         0.075145       0.006321
                                                         0.030287      -0.000019
                          1       5    4dxz              6.132625       1.515169
                                                         2.625196       0.650856
                                                         1.045457       1.132690
                                                         0.478316       0.330834
                                                         0.178617       0.032314
                                                         0.075145       0.006321
                                                         0.030287      -0.000019
                          1       5    4dy2              6.132625       0.874783
                                                         2.625196       0.375772
                                                         1.045457       0.653959
                                                         0.478316       0.191007
                                                         0.178617       0.018656
                                                         0.075145       0.003649
                                                         0.030287      -0.000011
                          1       5    4dyz              6.132625       1.515169
                                                         2.625196       0.650856
                                                         1.045457       1.132690
                                                         0.478316       0.330834
                                                         0.178617       0.032314
                                                         0.075145       0.006321
                                                         0.030287      -0.000019
                          1       5    4dz2              6.132625       0.874783
                                                         2.625196       0.375772
                                                         1.045457       0.653959
                                                         0.478316       0.191007
                                                         0.178617       0.018656
                                                         0.075145       0.003649
                                                         0.030287      -0.000011

       Atomic covalent radius [Angstrom]:                                  0.770

       Atomic van der Waals radius [Angstrom]:                             1.700

     GTH Potential information for                                    GTH-PBE-q4

       Description:                       Goedecker-Teter-Hutter pseudopotential
                                           Goedecker et al., PRB 54, 1703 (1996)
                                          Hartwigsen et al., PRB 58, 3641 (1998)
                                                      Krack, TCA 114, 145 (2005)

       Gaussian exponent of the core charge distribution:               4.364419
       Electronic configuration (s p d ...):                               2   2

       Parameters of the local part of the GTH pseudopotential:

                          rloc        C1          C2          C3          C4
                        0.338471   -8.803674    1.339211

       Parameters of the non-local part of the GTH pseudopotential:

                   l      r(l)      h(i,j,l)

                   0    0.302576    9.622487
                   1    0.291507

  3. Atomic kind: N                                     Number of atoms:       3

     Orbital Basis Set                                           DZVP-MOLOPT-GTH

       Number of orbital shell sets:                                           1
       Number of orbital shells:                                               5
       Number of primitive Cartesian functions:                                7
       Number of Cartesian basis functions:                                   14
       Number of spherical basis functions:                                   13
       Norm type:                                                              2

       Normalised Cartesian orbitals:

                        Set   Shell   Orbital            Exponent    Coefficient

                          1       1    2s                9.042730      -0.237404
                                                         3.882225      -0.265910
                                                         1.512880       0.102064
                                                         0.586631       0.295369
                                                         0.222851       0.088647
                                                         0.084583       0.003860
                                                         0.039194       0.000722

                          1       2    3s                9.042730       0.259152
                                                         3.882225       0.251432
                                                         1.512880      -0.043896
                                                         0.586631      -0.328079
                                                         0.222851       0.175857
                                                         0.084583       0.069169
                                                         0.039194       0.004207

                          1       3    3px               9.042730       0.822162
                                                         3.882225       0.990771
                                                         1.512880       0.665657
                                                         0.586631       0.321705
                                                         0.222851       0.063706
                                                         0.084583       0.004155
                                                         0.039194      -0.000005
                          1       3    3py               9.042730       0.822162
                                                         3.882225       0.990771
                                                         1.512880       0.665657
                                                         0.586631       0.321705
                                                         0.222851       0.063706
                                                         0.084583       0.004155
                                                         0.039194      -0.000005
                          1       3    3pz               9.042730       0.822162
                                                         3.882225       0.990771
                                                         1.512880       0.665657
                                                         0.586631       0.321705
                                                         0.222851       0.063706
                                                         0.084583       0.004155
                                                         0.039194      -0.000005

                          1       4    4px               9.042730      -0.251449
                                                         3.882225      -0.215479
                                                         1.512880      -0.200519
                                                         0.586631      -0.125283
                                                         0.222851       0.136219
                                                         0.084583       0.034362
                                                         0.039194       0.000879
                          1       4    4py               9.042730      -0.251449
                                                         3.882225      -0.215479
                                                         1.512880      -0.200519
                                                         0.586631      -0.125283
                                                         0.222851       0.136219
                                                         0.084583       0.034362
                                                         0.039194       0.000879
                          1       4    4pz               9.042730      -0.251449
                                                         3.882225      -0.215479
                                                         1.512880      -0.200519
                                                         0.586631      -0.125283
                                                         0.222851       0.136219
                                                         0.084583       0.034362
                                                         0.039194       0.000879

                          1       5    4dx2              9.042730       1.099742
                                                         3.882225       0.532064
                                                         1.512880       0.873643
                                                         0.586631       0.456348
                                                         0.222851       0.017840
                                                         0.084583      -0.000857
                                                         0.039194      -0.000086
                          1       5    4dxy              9.042730       1.904809
                                                         3.882225       0.921562
                                                         1.512880       1.513195
                                                         0.586631       0.790419
                                                         0.222851       0.030900
                                                         0.084583      -0.001484
                                                         0.039194      -0.000150
                          1       5    4dxz              9.042730       1.904809
                                                         3.882225       0.921562
                                                         1.512880       1.513195
                                                         0.586631       0.790419
                                                         0.222851       0.030900
                                                         0.084583      -0.001484
                                                         0.039194      -0.000150
                          1       5    4dy2              9.042730       1.099742
                                                         3.882225       0.532064
                                                         1.512880       0.873643
                                                         0.586631       0.456348
                                                         0.222851       0.017840
                                                         0.084583      -0.000857
                                                         0.039194      -0.000086
                          1       5    4dyz              9.042730       1.904809
                                                         3.882225       0.921562
                                                         1.512880       1.513195
                                                         0.586631       0.790419
                                                         0.222851       0.030900
                                                         0.084583      -0.001484
                                                         0.039194      -0.000150
                          1       5    4dz2              9.042730       1.099742
                                                         3.882225       0.532064
                                                         1.512880       0.873643
                                                         0.586631       0.456348
                                                         0.222851       0.017840
                                                         0.084583      -0.000857
                                                         0.039194      -0.000086

       Atomic covalent radius [Angstrom]:                                  0.750

       Atomic van der Waals radius [Angstrom]:                             1.550

     GTH Potential information for                                    GTH-PBE-q5

       Description:                       Goedecker-Teter-Hutter pseudopotential
                                           Goedecker et al., PRB 54, 1703 (1996)
                                          Hartwigsen et al., PRB 58, 3641 (1998)
                                                      Krack, TCA 114, 145 (2005)

       Gaussian exponent of the core charge distribution:               6.208322
       Electronic configuration (s p d ...):                               2   3

       Parameters of the local part of the GTH pseudopotential:

                          rloc        C1          C2          C3          C4
                        0.283791  -12.415226    1.868096

       Parameters of the non-local part of the GTH pseudopotential:

                   l      r(l)      h(i,j,l)

                   0    0.255405   13.630263
                   1    0.245495

  4. Atomic kind: S                                     Number of atoms:       1

     Orbital Basis Set                                           DZVP-MOLOPT-GTH

       Number of orbital shell sets:                                           1
       Number of orbital shells:                                               5
       Number of primitive Cartesian functions:                                6
       Number of Cartesian basis functions:                                   14
       Number of spherical basis functions:                                   13
       Norm type:                                                              2

       Normalised Cartesian orbitals:

                        Set   Shell   Orbital            Exponent    Coefficient

                          1       1    2s                3.817591       0.157264
                                                         2.362752      -0.510082
                                                         0.861004      -0.067545
                                                         0.417525       0.341507
                                                         0.181514       0.065073
                                                         0.070571       0.000166

                          1       2    3s                3.817591      -0.204385
                                                         2.362752       0.558740
                                                         0.861004       0.301625
                                                         0.417525      -0.627222
                                                         0.181514       0.190853
                                                         0.070571       0.080605

                          1       3    3px               3.817591      -0.172386
                                                         2.362752      -0.175607
                                                         0.861004       0.224215
                                                         0.417525       0.286358
                                                         0.181514       0.049699
                                                         0.070571       0.001588
                          1       3    3py               3.817591      -0.172386
                                                         2.362752      -0.175607
                                                         0.861004       0.224215
                                                         0.417525       0.286358
                                                         0.181514       0.049699
                                                         0.070571       0.001588
                          1       3    3pz               3.817591      -0.172386
                                                         2.362752      -0.175607
                                                         0.861004       0.224215
                                                         0.417525       0.286358
                                                         0.181514       0.049699
                                                         0.070571       0.001588

                          1       4    4px               3.817591       0.011373
                                                         2.362752       0.235342
                                                         0.861004      -0.175793
                                                         0.417525      -0.223923
                                                         0.181514       0.115877
                                                         0.070571       0.033489
                          1       4    4py               3.817591       0.011373
                                                         2.362752       0.235342
                                                         0.861004      -0.175793
                                                         0.417525      -0.223923
                                                         0.181514       0.115877
                                                         0.070571       0.033489
                          1       4    4pz               3.817591       0.011373
                                                         2.362752       0.235342
                                                         0.861004      -0.175793
                                                         0.417525      -0.223923
                                                         0.181514       0.115877
                                                         0.070571       0.033489

                          1       5    4dx2              3.817591       0.133631
                                                         2.362752       0.806297
                                                         0.861004       0.453606
                                                         0.417525       0.175089
                                                         0.181514       0.017666
                                                         0.070571      -0.000330
                          1       5    4dxy              3.817591       0.231456
                                                         2.362752       1.396548
                                                         0.861004       0.785669
                                                         0.417525       0.303263
                                                         0.181514       0.030598
                                                         0.070571      -0.000571
                          1       5    4dxz              3.817591       0.231456
                                                         2.362752       1.396548
                                                         0.861004       0.785669
                                                         0.417525       0.303263
                                                         0.181514       0.030598
                                                         0.070571      -0.000571
                          1       5    4dy2              3.817591       0.133631
                                                         2.362752       0.806297
                                                         0.861004       0.453606
                                                         0.417525       0.175089
                                                         0.181514       0.017666
                                                         0.070571      -0.000330
                          1       5    4dyz              3.817591       0.231456
                                                         2.362752       1.396548
                                                         0.861004       0.785669
                                                         0.417525       0.303263
                                                         0.181514       0.030598
                                                         0.070571      -0.000571
                          1       5    4dz2              3.817591       0.133631
                                                         2.362752       0.806297
                                                         0.861004       0.453606
                                                         0.417525       0.175089
                                                         0.181514       0.017666
                                                         0.070571      -0.000330

       Atomic covalent radius [Angstrom]:                                  1.020

       Atomic van der Waals radius [Angstrom]:                             1.800

     GTH Potential information for                                    GTH-PBE-q6

       Description:                       Goedecker-Teter-Hutter pseudopotential
                                           Goedecker et al., PRB 54, 1703 (1996)
                                          Hartwigsen et al., PRB 58, 3641 (1998)
                                                      Krack, TCA 114, 145 (2005)

       Gaussian exponent of the core charge distribution:               2.834467
       Electronic configuration (s p d ...):                               2   4

       Parameters of the local part of the GTH pseudopotential:

                          rloc        C1          C2          C3          C4
                        0.420000   -5.986260

       Parameters of the non-local part of the GTH pseudopotential:

                   l      r(l)      h(i,j,l)

                   0    0.364820   13.143544   -4.241830
                                   -4.241830    5.476180
                   1    0.409480    3.700891

  5. Atomic kind: H                                     Number of atoms:       3

     Orbital Basis Set                                           DZVP-MOLOPT-GTH

       Number of orbital shell sets:                                           1
       Number of orbital shells:                                               3
       Number of primitive Cartesian functions:                                7
       Number of Cartesian basis functions:                                    5
       Number of spherical basis functions:                                    5
       Norm type:                                                              2

       Normalised Cartesian orbitals:

                        Set   Shell   Orbital            Exponent    Coefficient

                          1       1    2s               11.478000       0.129129
                                                         3.700759       0.177012
                                                         1.446884       0.141285
                                                         0.716815       0.245670
                                                         0.247919       0.094768
                                                         0.066918       0.004062
                                                         0.021708      -0.000053

                          1       2    3s               11.478000      -0.079256
                                                         3.700759      -0.152992
                                                         1.446884       0.015066
                                                         0.716815      -0.331234
                                                         0.247919       0.210690
                                                         0.066918       0.058630
                                                         0.021708      -0.003429

                          1       3    3px              11.478000       0.325290
                                                         3.700759       0.187466
                                                         1.446884       0.443300
                                                         0.716815       0.267738
                                                         0.247919       0.088285
                                                         0.066918       0.019092
                                                         0.021708       0.000629
                          1       3    3py              11.478000       0.325290
                                                         3.700759       0.187466
                                                         1.446884       0.443300
                                                         0.716815       0.267738
                                                         0.247919       0.088285
                                                         0.066918       0.019092
                                                         0.021708       0.000629
                          1       3    3pz              11.478000       0.325290
                                                         3.700759       0.187466
                                                         1.446884       0.443300
                                                         0.716815       0.267738
                                                         0.247919       0.088285
                                                         0.066918       0.019092
                                                         0.021708       0.000629

       Atomic covalent radius [Angstrom]:                                  0.320

       Atomic van der Waals radius [Angstrom]:                             1.090

     GTH Potential information for                                    GTH-PBE-q1

       Description:                       Goedecker-Teter-Hutter pseudopotential
                                           Goedecker et al., PRB 54, 1703 (1996)
                                          Hartwigsen et al., PRB 58, 3641 (1998)
                                                      Krack, TCA 114, 145 (2005)

       Gaussian exponent of the core charge distribution:              12.500000
       Electronic configuration (s p d ...):                                   1

       Parameters of the local part of the GTH pseudopotential:

                          rloc        C1          C2          C3          C4
                        0.200000   -4.178900    0.724463


 MOLECULE KIND INFORMATION


 All atoms are their own molecule, skipping detailed information


 TOTAL NUMBERS AND MAXIMUM NUMBERS

  Total number of            - Atomic kinds:                                   5
                             - Atoms:                                        105
                             - Shell sets:                                   105
                             - Shells:                                       519
                             - Primitive Cartesian functions:                446
                             - Cartesian basis functions:                   1443
                             - Spherical basis functions:                   1341

  Maximum angular momentum of- Orbital basis functions:                        2
                             - Local part of the GTH pseudopotential:          2
                             - Non-local part of the GTH pseudopotential:      2


 MODULE QUICKSTEP: ATOMIC COORDINATES IN ANGSTROM

   Atom Kind Element         X             Y             Z       Z(eff)     Mass
      1    1 Al   13      1.418118      0.891834     10.007231   3.0000  26.9815
      2    1 Al   13      4.284296      0.890625     10.018185   3.0000  26.9815
      3    1 Al   13      7.146289      0.890210     10.023426   3.0000  26.9815
      4    1 Al   13     10.009590      0.890594     10.015789   3.0000  26.9815
      5    1 Al   13      2.849348      3.373489     10.020807   3.0000  26.9815
      6    1 Al   13      5.712294      3.372575     10.022323   3.0000  26.9815
      7    1 Al   13      8.577001      3.371478     10.020469   3.0000  26.9815
      8    1 Al   13     11.441226      3.373837     10.018376   3.0000  26.9815
      9    1 Al   13      4.281249      5.850807     10.028524   3.0000  26.9815
     10    1 Al   13      7.145780      5.849379     10.023350   3.0000  26.9815
     11    1 Al   13     10.011653      5.851261     10.027918   3.0000  26.9815
     12    1 Al   13     12.874157      5.852145     10.035532   3.0000  26.9815
     13    1 Al   13      5.713637      8.328931     10.017424   3.0000  26.9815
     14    1 Al   13      8.579926      8.328692     10.017904   3.0000  26.9815
     15    1 Al   13     11.444198      8.329084     10.032128   3.0000  26.9815
     16    1 Al   13     14.305820      8.329515     10.030153   3.0000  26.9815
     17    1 Al   13      0.013416      1.689862     12.396832   3.0000  26.9815
     18    1 Al   13      2.875642      1.692133     12.396740   3.0000  26.9815
     19    1 Al   13      5.739487      1.689142     12.400529   3.0000  26.9815
     20    1 Al   13      8.607195      1.688305     12.404998   3.0000  26.9815
     21    1 Al   13      1.445404      4.173422     12.411166   3.0000  26.9815
     22    1 Al   13      4.306623      4.174866     12.405903   3.0000  26.9815
     23    1 Al   13      7.175539      4.172900     12.404537   3.0000  26.9815
     24    1 Al   13     10.040454      4.173049     12.407043   3.0000  26.9815
     25    1 Al   13      2.876808      6.656053     12.421624   3.0000  26.9815
     26    1 Al   13      5.738959      6.657025     12.401964   3.0000  26.9815
     27    1 Al   13      8.607194      6.658384     12.401591   3.0000  26.9815
     28    1 Al   13     11.471406      6.657727     12.421436   3.0000  26.9815
     29    1 Al   13      4.307288      9.133567     12.405759   3.0000  26.9815
     30    1 Al   13      7.169253      9.134595     12.387526   3.0000  26.9815
     31    1 Al   13     10.036945      9.134361     12.406631   3.0000  26.9815
     32    1 Al   13     12.900702      9.133967     12.414132   3.0000  26.9815
     33    1 Al   13      0.012549      0.032248     14.695046   3.0000  26.9815
     34    1 Al   13      2.866217      0.031294     14.686515   3.0000  26.9815
     35    1 Al   13      5.737073      0.025538     14.706155   3.0000  26.9815
     36    1 Al   13      8.603162      0.027220     14.716264   3.0000  26.9815
     37    1 Al   13      1.439602      2.506810     14.695688   3.0000  26.9815
     38    1 Al   13      4.296414      2.503182     14.689743   3.0000  26.9815
     39    1 Al   13      7.170943      2.500104     14.683991   3.0000  26.9815
     40    1 Al   13     10.044638      2.505685     14.691892   3.0000  26.9815
     41    1 Al   13      2.870143      4.989426     14.709277   3.0000  26.9815
     42    1 Al   13      5.737318      4.990900     14.686922   3.0000  26.9815
     43    1 Al   13      8.613653      4.994475     14.688822   3.0000  26.9815
     44    1 Al   13     11.469739      4.987889     14.700737   3.0000  26.9815
     45    1 Al   13      4.305063      7.475075     14.716703   3.0000  26.9815
     46    1 Al   13      7.175202      7.481725     14.691153   3.0000  26.9815
     47    1 Al   13     10.041661      7.474824     14.713252   3.0000  26.9815
     48    1 Al   13     12.902774      7.477120     14.735407   3.0000  26.9815
     49    1 Al   13      1.402374      0.841247     17.032070   3.0000  26.9815
     50    1 Al   13      4.249872      0.819252     16.986344   3.0000  26.9815
     51    1 Al   13      7.142236      0.816127     17.010676   3.0000  26.9815
     52    1 Al   13     10.022885      0.834977     17.029692   3.0000  26.9815
     53    1 Al   13      2.827398      3.285950     17.003017   3.0000  26.9815
     54    1 Al   13      5.687869      3.290805     16.962831   3.0000  26.9815
     55    1 Al   13      8.580390      3.298309     16.962183   3.0000  26.9815
     56    1 Al   13     11.440085      3.294519     17.001805   3.0000  26.9815
     57    1 Al   13      4.269623      5.799472     17.002914   3.0000  26.9815
     58    1 Al   13      7.140272      5.817447     16.958204   3.0000  26.9815
     59    1 Al   13     10.019841      5.812689     17.004185   3.0000  26.9815
     60    1 Al   13     12.867473      5.793464     17.032666   3.0000  26.9815
     61    1 Al   13      5.714155      8.310591     17.014141   3.0000  26.9815
     62    1 Al   13      8.561829      8.295516     16.996956   3.0000  26.9815
     63    1 Al   13     11.433404      8.284013     17.039085   3.0000  26.9815
     64    1 Al   13     14.311033      8.286603     17.050733   3.0000  26.9815
     65    1 Al   13     -0.060286      1.664183     19.420296   3.0000  26.9815
     66    1 Al   13      2.762348      1.621930     19.367041   3.0000  26.9815
     67    1 Al   13      5.615780      1.625753     19.219151   3.0000  26.9815
     68    1 Al   13      8.576190      1.683780     19.244952   3.0000  26.9815
     69    1 Al   13      1.364413      4.104748     19.275324   3.0000  26.9815
     70    1 Al   13      4.219514      4.107410     19.221328   3.0000  26.9815
     71    1 Al   13      7.112930      4.138172     19.169142   3.0000  26.9815
     72    1 Al   13      9.972799      4.121828     19.238224   3.0000  26.9815
     73    1 Al   13      2.819225      6.610607     19.323107   3.0000  26.9815
     74    1 Al   13      5.696972      6.657598     19.232869   3.0000  26.9815
     75    1 Al   13      8.549005      6.665393     19.230031   3.0000  26.9815
     76    1 Al   13     11.422315      6.641156     19.335275   3.0000  26.9815
     77    1 Al   13      4.250812      9.114546     19.347052   3.0000  26.9815
     78    1 Al   13      7.110336      9.120115     19.367791   3.0000  26.9815
     79    1 Al   13      9.952241      9.097973     19.323741   3.0000  26.9815
     80    1 Al   13     12.824459      9.094512     19.325004   3.0000  26.9815
     81    1 Al   13     -0.320856     -0.114756     21.972867   3.0000  26.9815
     82    1 Al   13      2.730163     -0.055077     22.185410   3.0000  26.9815
     83    1 Al   13      5.590311      0.065990     21.656052   3.0000  26.9815
     84    1 Al   13      8.376931      0.065717     21.624391   3.0000  26.9815
     85    1 Al   13      1.217441      2.595245     21.922742   3.0000  26.9815
     86    1 Al   13      4.163723      2.480049     21.587776   3.0000  26.9815
     87    1 Al   13      6.982838      2.522346     21.429941   3.0000  26.9815
     88    1 Al   13      9.772298      2.562868     21.916982   3.0000  26.9815
     89    1 Al   13      2.766520      4.939369     21.636124   3.0000  26.9815
     90    1 Al   13      5.635843      4.962578     21.420191   3.0000  26.9815
     91    1 Al   13      8.462028      5.011917     21.409142   3.0000  26.9815
     92    1 Al   13     11.269148      4.990995     21.585328   3.0000  26.9815
     93    1 Al   13      4.136017      7.353969     21.696625   3.0000  26.9815
     94    1 Al   13      7.040980      7.435234     21.645765   3.0000  26.9815
     95    1 Al   13      9.889895      7.450592     21.664244   3.0000  26.9815
     96    1 Al   13     12.702483      7.387026     22.081467   3.0000  26.9815
     97    2 C     6      6.088322      3.990298     24.540809   4.0000  12.0107
     98    3 N     7      6.927846      2.961796     24.434918   5.0000  14.0067
     99    2 C     6      8.185727      3.468493     24.559076   4.0000  12.0107
    100    4 S    16      9.656728      2.631022     24.333733   6.0000  32.0650
    101    3 N     7      8.109253      4.833541     24.701594   5.0000  14.0067
    102    3 N     7      6.744851      5.178227     24.827170   5.0000  14.0067
    103    5 H     1      5.012450      3.946951     24.391481   1.0000   1.0079
    104    5 H     1      8.820119      5.412285     25.141446   1.0000   1.0079
    105    5 H     1      6.470903      5.996133     24.257835   1.0000   1.0079



 SCF PARAMETERS         Density guess:                                     MOPAC
                        --------------------------------------------------------
                        max_scf:                                             500
                        max_scf_history:                                       0
                        max_diis:                                              4
                        --------------------------------------------------------
                        eps_scf:                                        1.00E-06
                        eps_scf_history:                                0.00E+00
                        eps_diis:                                       1.00E-01
                        eps_eigval:                                     1.00E-05
                        --------------------------------------------------------
                        level_shift [a.u.]:                             0.000000
                        added MOs                                       100    0
                        --------------------------------------------------------
                        Mixing method:                            BROYDEN_MIXING
                                                charge density mixing in g-space
                        --------------------------------------------------------
                        Smear method:                                FERMI_DIRAC
                        Electronic temperature [K]:                       1000.0
                        Electronic temperature [a.u.]:                  3.17E-03
                        Accuracy threshold:                             1.00E-10
                        --------------------------------------------------------
                        Outer loop SCF in use 
                        No variables optimised in outer loop
                        eps_scf                                         1.00E-06
                        max_scf                                               50
                        No outer loop optimization
                        step_size                                       5.00E-01

 PW_GRID| Information for grid number                                          1
 PW_GRID| Grid distributed over                                    48 processors
 PW_GRID| Real space group dimensions                                    48    1
 PW_GRID| the grid is blocked:                                                NO
 PW_GRID| Cutoff [a.u.]                                                    250.0
 PW_GRID| spherical cutoff:                                                   NO
 PW_GRID|   Bounds   1            -80      79                Points:         160
 PW_GRID|   Bounds   2            -80      79                Points:         160
 PW_GRID|   Bounds   3           -270     269                Points:         540
 PW_GRID| Volume element (a.u.^3)  0.2219E-02     Volume (a.u.^3)     30675.1901
 PW_GRID| Grid span                                                    FULLSPACE
 PW_GRID|   Distribution                         Average         Max         Min
 PW_GRID|   G-Vectors                           288000.0      288000      288000
 PW_GRID|   G-Rays                                1800.0        1800        1800
 PW_GRID|   Real Space Points                   288000.0      345600      259200

 PW_GRID| Information for grid number                                          2
 PW_GRID| Number of the reference grid                                         1
 PW_GRID| Grid distributed over                                    48 processors
 PW_GRID| Real space group dimensions                                    48    1
 PW_GRID| the grid is blocked:                                                NO
 PW_GRID| Cutoff [a.u.]                                                     83.3
 PW_GRID| spherical cutoff:                                                   NO
 PW_GRID|   Bounds   1            -45      44                Points:          90
 PW_GRID|   Bounds   2            -45      44                Points:          90
 PW_GRID|   Bounds   3           -160     159                Points:         320
 PW_GRID| Volume element (a.u.^3)  0.1183E-01     Volume (a.u.^3)     30675.1901
 PW_GRID| Grid span                                                    FULLSPACE
 PW_GRID|   Distribution                         Average         Max         Min
 PW_GRID|   G-Vectors                            54000.0       56070       45990
 PW_GRID|   G-Rays                                 600.0         623         511
 PW_GRID|   Real Space Points                    54000.0       57600       28800

 PW_GRID| Information for grid number                                          3
 PW_GRID| Number of the reference grid                                         1
 PW_GRID| Grid distributed over                                    48 processors
 PW_GRID| Real space group dimensions                                    48    1
 PW_GRID| the grid is blocked:                                                NO
 PW_GRID| Cutoff [a.u.]                                                     27.8
 PW_GRID| spherical cutoff:                                                   NO
 PW_GRID|   Bounds   1            -27      26                Points:          54
 PW_GRID|   Bounds   2            -27      26                Points:          54
 PW_GRID|   Bounds   3            -90      89                Points:         180
 PW_GRID| Volume element (a.u.^3)  0.5844E-01     Volume (a.u.^3)     30675.1901
 PW_GRID| Grid span                                                    FULLSPACE
 PW_GRID|   Distribution                         Average         Max         Min
 PW_GRID|   G-Vectors                            10935.0       11448       10260
 PW_GRID|   G-Rays                                 202.5         212         190
 PW_GRID|   Real Space Points                    10935.0       19440        9720

 PW_GRID| Information for grid number                                          4
 PW_GRID| Number of the reference grid                                         1
 PW_GRID| Grid distributed over                                    48 processors
 PW_GRID| Real space group dimensions                                     6    8
 PW_GRID| the grid is blocked:                                                NO
 PW_GRID| Cutoff [a.u.]                                                      9.3
 PW_GRID| spherical cutoff:                                                   NO
 PW_GRID|   Bounds   1            -15      14                Points:          30
 PW_GRID|   Bounds   2            -15      14                Points:          30
 PW_GRID|   Bounds   3            -54      53                Points:         108
 PW_GRID| Volume element (a.u.^3)  0.3156         Volume (a.u.^3)     30675.1901
 PW_GRID| Grid span                                                    FULLSPACE
 PW_GRID|   Distribution                         Average         Max         Min
 PW_GRID|   G-Vectors                             2025.0        2340        1710
 PW_GRID|   G-Rays                                  67.5          78          57
 PW_GRID|   Real Space Points                     2025.0        2160        1620

 PW_GRID| Information for grid number                                          5
 PW_GRID| Number of the reference grid                                         1
 PW_GRID| Grid distributed over                                    48 processors
 PW_GRID| Real space group dimensions                                     6    8
 PW_GRID| the grid is blocked:                                                NO
 PW_GRID| Cutoff [a.u.]                                                      3.1
 PW_GRID| spherical cutoff:                                                   NO
 PW_GRID|   Bounds   1             -9       8                Points:          18
 PW_GRID|   Bounds   2             -9       8                Points:          18
 PW_GRID|   Bounds   3            -30      29                Points:          60
 PW_GRID| Volume element (a.u.^3)   1.578         Volume (a.u.^3)     30675.1901
 PW_GRID| Grid span                                                    FULLSPACE
 PW_GRID|   Distribution                         Average         Max         Min
 PW_GRID|   G-Vectors                              405.0         486         288
 PW_GRID|   G-Rays                                  22.5          27          16
 PW_GRID|   Real Space Points                      405.0         540         360

 POISSON| Solver                                                        PERIODIC
 POISSON| Periodicity                                                        XYZ

 RS_GRID| Information for grid number                                          1
 RS_GRID|   Bounds   1            -80      79                Points:         160
 RS_GRID|   Bounds   2            -80      79                Points:         160
 RS_GRID|   Bounds   3           -270     269                Points:         540
 RS_GRID| Real space distribution over                                 48 groups
 RS_GRID| Real space distribution along direction                              3
 RS_GRID| Border size                                                         40
 RS_GRID|   Distribution                         Average         Max         Min
 RS_GRID|   Planes                                  91.2          92          91

 RS_GRID| Information for grid number                                          2
 RS_GRID|   Bounds   1            -45      44                Points:          90
 RS_GRID|   Bounds   2            -45      44                Points:          90
 RS_GRID|   Bounds   3           -160     159                Points:         320
 RS_GRID| Real space distribution over                                 48 groups
 RS_GRID| Real space distribution along direction                              3
 RS_GRID| Border size                                                         41
 RS_GRID|   Distribution                         Average         Max         Min
 RS_GRID|   Planes                                  88.7          89          88

 RS_GRID| Information for grid number                                          3
 RS_GRID|   Bounds   1            -27      26                Points:          54
 RS_GRID|   Bounds   2            -27      26                Points:          54
 RS_GRID|   Bounds   3            -90      89                Points:         180
 RS_GRID| Real space fully replicated
 RS_GRID| Group size                                                           1

 RS_GRID| Information for grid number                                          4
 RS_GRID|   Bounds   1            -15      14                Points:          30
 RS_GRID|   Bounds   2            -15      14                Points:          30
 RS_GRID|   Bounds   3            -54      53                Points:         108
 RS_GRID| Real space fully replicated
 RS_GRID| Group size                                                           1

 RS_GRID| Information for grid number                                          5
 RS_GRID|   Bounds   1             -9       8                Points:          18
 RS_GRID|   Bounds   2             -9       8                Points:          18
 RS_GRID|   Bounds   3            -30      29                Points:          60
 RS_GRID| Real space fully replicated
 RS_GRID| Group size                                                           1

 Number of electrons:                                                        320
 Number of occupied orbitals:                                                160
 Number of molecular orbitals:                                               260

 Number of orbital functions:                                               1341
 Number of independent orbital functions:                                   1341

 Extrapolation method: initial_guess


 SCF WAVEFUNCTION OPTIMIZATION

  Step     Update method      Time    Convergence         Total energy    Change
  ------------------------------------------------------------------------------

 *** WARNING in fm/cp_fm_elpa.F:522 :: Setting real_kernel for ELPA failed ***

     1 NoMix/Diag. 0.10E+00    1.1     1.33541577      -250.7535553478 -2.51E+02

 *** WARNING in fm/cp_fm_elpa.F:522 :: Setting real_kernel for ELPA failed ***

     2 Broy./Diag. 0.10E+00    1.5     0.08550792      -268.8782081895 -1.81E+01

 *** WARNING in fm/cp_fm_elpa.F:522 :: Setting real_kernel for ELPA failed ***

     3 Broy./Diag. 0.10E+00    1.5     0.18711311      -264.3039378465  4.57E+00

 *** WARNING in fm/cp_fm_elpa.F:522 :: Setting real_kernel for ELPA failed ***

     4 Broy./Diag. 0.10E+00    1.5     0.06341450      -261.9298314345  2.37E+00

 *** WARNING in fm/cp_fm_elpa.F:522 :: Setting real_kernel for ELPA failed ***

     5 Broy./Diag. 0.10E+00    1.4     0.07728596      -257.7539525385  4.18E+00

 *** WARNING in fm/cp_fm_elpa.F:522 :: Setting real_kernel for ELPA failed ***

     6 Broy./Diag. 0.10E+00    1.5     0.01439181      -256.4660886571  1.29E+00

 *** WARNING in fm/cp_fm_elpa.F:522 :: Setting real_kernel for ELPA failed ***

     7 Broy./Diag. 0.10E+00    1.4     0.06785830      -253.9379619316  2.53E+00

 *** WARNING in fm/cp_fm_elpa.F:522 :: Setting real_kernel for ELPA failed ***

     8 Broy./Diag. 0.10E+00    1.5     0.00382513      -253.2864660575  6.51E-01

 *** WARNING in fm/cp_fm_elpa.F:522 :: Setting real_kernel for ELPA failed ***

     9 Broy./Diag. 0.10E+00    1.5     0.02971257      -252.0930019548  1.19E+00

 *** WARNING in fm/cp_fm_elpa.F:522 :: Setting real_kernel for ELPA failed ***

    10 Broy./Diag. 0.10E+00    1.5     0.00310281      -252.0021733101  9.08E-02

 *** WARNING in fm/cp_fm_elpa.F:522 :: Setting real_kernel for ELPA failed ***

    11 Broy./Diag. 0.10E+00    1.5     0.00859008      -251.7360262553  2.66E-01

 *** WARNING in fm/cp_fm_elpa.F:522 :: Setting real_kernel for ELPA failed ***

    12 Broy./Diag. 0.10E+00    1.5     0.00338471      -251.6242399297  1.12E-01

 *** WARNING in fm/cp_fm_elpa.F:522 :: Setting real_kernel for ELPA failed ***

    13 Broy./Diag. 0.10E+00    1.5     0.00717822      -251.6728415908 -4.86E-02

 *** WARNING in fm/cp_fm_elpa.F:522 :: Setting real_kernel for ELPA failed ***

    14 Broy./Diag. 0.10E+00    1.5     0.00158993      -251.6817827307 -8.94E-03

 *** WARNING in fm/cp_fm_elpa.F:522 :: Setting real_kernel for ELPA failed ***

    15 Broy./Diag. 0.10E+00    1.5     0.00384170      -251.6792086829  2.57E-03

 *** WARNING in fm/cp_fm_elpa.F:522 :: Setting real_kernel for ELPA failed ***

    16 Broy./Diag. 0.10E+00    1.5     0.00261720      -251.6898093946 -1.06E-02

 *** WARNING in fm/cp_fm_elpa.F:522 :: Setting real_kernel for ELPA failed ***

    17 Broy./Diag. 0.10E+00    1.5     0.00052245      -251.6946153678 -4.81E-03

[...]
 ERI_GPW| Spinmatrix: 1      nrows_total                                  13530
 ERI_GPW| Spinmatrix: 1      ncols_total                                  13530
 ERI_GPW| Spinmatrix: 1      nrows_local                                      0

  @SERVER: Created socket with address embedding_socket
  @SERVER: Waiting for requests...
  @SERVER: Accepted socket with fd 25

  Iter    Update    Time         Corr. energy         Total energy        Change
  ------------------------------------------------------------------------------
     1    P_Mix     ****        -0.0000007537      -251.6246243267     -7.54E-07

  *** rsDFT embedding run converged in     1 iteration(s) ***

   FCIDUMP| Checksum:                                            253.22036418

 !-------------------- End of Active Space Interface --------------------------!

 ENERGY| Total FORCE_EVAL ( QS ) energy [a.u.]:             -251.624624326650434

 -------------------------------------------------------------------------------
 -                                                                             -
 -                                DBCSR STATISTICS                             -
 -                                                                             -
 -------------------------------------------------------------------------------
 COUNTER                                    TOTAL       BLAS       SMM       ACC
 flops     5 x     4 x     5                12600       0.0%    100.0%      0.0%     
 flops     5 x     5 x     4                87600       0.0%    100.0%      0.0%     
 flops    68 x     4 x   104               339456       0.0%    100.0%      0.0%     
 flops    68 x     4 x   109               355776       0.0%    100.0%      0.0%     
 flops     5 x    32 x     5               590400       0.0%    100.0%      0.0%     
 flops    68 x     4 x   117               763776       0.0%    100.0%      0.0%     
 flops    64 x     4 x   104               958464       0.0%    100.0%      0.0%     
 flops    64 x     4 x   109              1004544       0.0%    100.0%      0.0%     
 flops    13 x     4 x     5              1113840       0.0%    100.0%      0.0%     
 flops     5 x     4 x    13              1113840       0.0%    100.0%      0.0%     
 flops    64 x     4 x   117              2156544       0.0%    100.0%      0.0%     
 flops     5 x     5 x    32              5548800       0.0%    100.0%      0.0%     
 flops     5 x    13 x     4              5807880       0.0%    100.0%      0.0%     
 flops    13 x     5 x     4              5807880       0.0%    100.0%      0.0%     
 flops    68 x    32 x   104             21725184       0.0%    100.0%      0.0%     
 flops    68 x    32 x   109             22769664       0.0%    100.0%      0.0%     
 flops    68 x    32 x   117             48881664       0.0%    100.0%      0.0%     
 flops     5 x    32 x    13             52191360       0.0%    100.0%      0.0%     
 flops    13 x    32 x     5             52191360       0.0%    100.0%      0.0%     
 flops    64 x    32 x   104             61341696       0.0%    100.0%      0.0%     
 flops    64 x    32 x   109             64290816       0.0%    100.0%      0.0%     
 flops    13 x     4 x    13             97195280       0.0%    100.0%      0.0%     
 flops    64 x    32 x   117            138018816       0.0%    100.0%      0.0%     
 flops     5 x    13 x    32            367885440       0.0%    100.0%      0.0%     
 flops    13 x     5 x    32            367885440       0.0%    100.0%      0.0%     
 flops    13 x    13 x     4            511837456       0.0%    100.0%      0.0%     
 flops    13 x    32 x    13           4554293120       0.0%    100.0%      0.0%     
 flops    13 x    13 x    32          32421046528       0.0%    100.0%      0.0%     
 flops inhomo. stacks                           0       0.0%      0.0%      0.0%
 flops total                        38.807215E+09       0.0%    100.0%      0.0%
 flops max/rank                      1.020333E+09       0.0%    100.0%      0.0%
 matmuls inhomo. stacks                         0       0.0%      0.0%      0.0%
 matmuls total                            4102830       0.0%    100.0%      0.0%
 number of processed stacks                 61821       0.0%    100.0%      0.0%
 average stack size                                     0.0      66.4       0.0
 marketing flops                    60.216545E+09
 -------------------------------------------------------------------------------
 # multiplications                             98
 max memory usage/rank             842.035200E+06
 # max total images/rank                        3
 # max 3D layers                                1
 # MPI messages exchanged                   94080
 MPI messages size (bytes):
  total size                         4.640218E+09
  min size                           0.000000E+00
  max size                         328.536000E+03
  average size                      49.322047E+03
 MPI breakdown and total messages size (bytes):
             size <=      128               30648                        0
       128 < size <=     8192                3040                 10739392
      8192 < size <=    32768               26864                701095840
     32768 < size <=   131072               28248               2365824384
    131072 < size <=  4194304                5280               1562558800
   4194304 < size <= 16777216                   0                        0
  16777216 < size                               0                        0
 -------------------------------------------------------------------------------

 *** WARNING in dbcsr_mm.F:301 :: Using a non-square number of MPI ranks ***
 *** might lead to poor performance. Used ranks: 48 Suggested: 49 100    ***

 -------------------------------------------------------------------------------
 -                                                                             -
 -                      DBCSR MESSAGE PASSING PERFORMANCE                      -
 -                                                                             -
 -------------------------------------------------------------------------------
 ROUTINE             CALLS      AVE VOLUME [Bytes]
 MP_Bcast               29                     12.
 MP_Allreduce          687                     10.
 MP_Alltoall          2353                  66126.
 MP_ISend             4614                  24001.
 MP_IRecv             4614                  21350.
 -------------------------------------------------------------------------------

 -------------------------------------------------------------------------------
 -                                                                             -
 -                                DBM STATISTICS                               -
 -                                                                             -
 -------------------------------------------------------------------------------
    M  x    N  x    K                                          COUNT     PERCENT
 -------------------------------------------------------------------------------

 -------------------------------------------------------------------------------
 -                                                                             -
 -                                GRID STATISTICS                              -
 -                                                                             -
 -------------------------------------------------------------------------------
 LP    KERNEL             BACKEND                              COUNT     PERCENT
 4     collocate general  CPU                                7590467      46.06%
 4     integrate general  CPU                                7590467      46.06%
 3     collocate general  CPU                                 593344       3.60%
 3     integrate general  CPU                                 593344       3.60%
 2     collocate general  CPU                                  49721       0.30%
 2     integrate general  CPU                                  47596       0.29%
 0     collocate general  CPU                                  10080       0.06%
 0     integrate general  CPU                                   5040       0.03%
 1     collocate general  CPU                                    105       0.00%
 -------------------------------------------------------------------------------

 MEMORY| Estimated peak process memory [MiB]                                 804

 -------------------------------------------------------------------------------
 ----                             MULTIGRID INFO                            ----
 -------------------------------------------------------------------------------
 count for grid        1:        1920670          cutoff [a.u.]          250.00
 count for grid        2:        1353006          cutoff [a.u.]           83.33
 count for grid        3:         980501          cutoff [a.u.]           27.78
 count for grid        4:         567498          cutoff [a.u.]            9.26
 count for grid        5:          96368          cutoff [a.u.]            3.09
 total gridlevel count  :        4918043

 -------------------------------------------------------------------------------
 -                                                                             -
 -                         MESSAGE PASSING PERFORMANCE                         -
 -                                                                             -
 -------------------------------------------------------------------------------

 ROUTINE             CALLS      AVE VOLUME [Bytes]
 MP_Group               10
 MP_Bcast              313                3029364.
 MP_Allreduce         1492                   3537.
 MP_Sync                93
 MP_Alltoall          1981               10929051.
 MP_SendRecv         10998                  59040.
 MP_ISendRecv        10293                  59040.
 MP_Wait             30257
 MP_comm_split           1
 MP_ISend            17986                 206649.
 MP_IRecv            17986                 206527.
 -------------------------------------------------------------------------------


 -------------------------------------------------------------------------------
 -                                                                             -
 -                           R E F E R E N C E S                               -
 -                                                                             -
 -------------------------------------------------------------------------------
 
 CP2K version 2024.3, the CP2K developers group (2024).
 CP2K is freely available from https://www.cp2k.org/ .
 
 T. D. Kuehne, M. Iannuzzi, M. Del Ben, V. V. Rybkin, P. Seewald, F. Stein, T. 
 Laino, R. Z. Khaliullin, O. Schuett, F. Schiffmann, D. Golze, J. Wilhelm, S. 
 Chulkov, M. H. Bani-Hashemian, V. Weber, U. Borstnik, M. Taillefumier, A. S. 
 Jakobovits, A. Lazzaro, H. Pabst, T. Mueller, R. Schade, M. Guidon, S. 
 Andermatt, N. Holmberg, G. K. Schenter, A. Hehn, A. Bussy, F. Belleflamme, G. 
 Tabacchi, A. Gloess, M. Lass, I. Bethune, C. J. Mundy, C. Plessl, M. Watkins, 
 J. VandeVondele, M. Krack, J. Hutter.
 J. Chem. Phys. 152, 194103 (2020).
 CP2K: An electronic structure and molecular dynamics software package - 
 Quickstep: Efficient and accurate electronic structure calculations.
 https://doi.org/10.1063/5.0007045

 L. Goerigk, A. Hansen, C. Bauer, S. Ehrlich, A. Najibi, S. Grimme.
 Phys. Chem. Chem. Phys. 19, 32184-32215 (2017).
 A look at the density functional theory zoo with the advanced GMTKN55 database 
 for general main group thermochemistry, kinetics and noncovalent interactions.
 https://doi.org/10.1039/C7CP04913G

 O. Schuett, P. Messmer, J. Hutter, J. VandeVondele.
 Electronic Structure Calculations on Graphics Processing Units, 173-190 (2016).
 GPU-Accelerated Sparse Matrix-Matrix Multiplication for Linear Scaling Density 
 Functional Theory.
 https://doi.org/10.1002/9781118670712.ch8

 A. Heinecke, G. Henry, M. Hutchinson, H. Pabst.
 Proceedings of Intl. Supercomputing Conference, 981-991 (2016).
 LIBXSMM: Accelerating Small Matrix Multiplications by Runtime Code Generation.
 https://doi.org/10.1109/SC.2016.83

 J. Hutter, M. Iannuzzi, F. Schiffmann, J. VandeVondele.
 WIREs Comput Mol Sci. 4, 15-25 (2014).
 CP2K: atomistic simulations of condensed matter systems.
 https://doi.org/10.1002/wcms.1159

 U. Borstnik, J. VandeVondele, V. Weber, J. Hutter.
 Parallel Comput. 40, 47-58 (2014).
 Sparse matrix multiplication: The distributed block-compressed sparse row 
 library.
 https://doi.org/10.1016/j.parco.2014.03.012

 A. Marek, V. Blum, R. Johanni, V. Havu, B. Lang, T. Auckenthaler, A. Heinecke, 
 H. Bungartz, H. Lederer.
 J. Phys. Condens. Matter 26, 213201 (2014).
 The ELPA library: scalable parallel eigenvalue solutions for electronic 
 structure theory and computational science.
 https://doi.org/10.1088/0953-8984/26/21/213201

 S. Grimme, S. Ehrlich, L. Goerigk.
 J. Comput. Chem. 32, 1456 (2011).
 Effect of the damping function in dispersion corrected density functional 
 theory.
 https://doi.org/10.1002/jcc.21759

 S. Grimme, J. Antony, S. Ehrlich, H. Krieg.
 J. Chem. Phys. 132, 154104 (2010).
 A consistent and accurate ab initio parametrization of density functional 
 dispersion correction (DFT-D) for the 94 elements H-Pu.
 https://doi.org/10.1063/1.3382344

 J. VandeVondele, J. Hutter.
 J. Chem. Phys. 127, 114105 (2007).
 Gaussian basis sets for accurate calculations on molecular systems in gas and 
 condensed phases.
 https://doi.org/10.1063/1.2770708

 J. VandeVondele, M. Krack, F. Mohamed, M. Parrinello, T. Chassaing, J. Hutter.
 Comput. Phys. Commun. 167, 103-128 (2005).
 QUICKSTEP: Fast and accurate density functional calculations using a mixed 
 Gaussian and plane waves approach.
 https://doi.org/10.1016/j.cpc.2004.12.014

 M. Krack.
 Theor. Chem. Acc. 114, 145-152 (2005).
 Pseudopotentials for H to Kr optimized for gradient-corrected 
 exchange-correlation functionals.
 https://doi.org/10.1007/s00214-005-0655-y

 M. Frigo, S. G. Johnson.
 Proc. IEEE 93, 216-231 (2005).
 The design and implementation of FFTW3.
 https://doi.org/10.1109/JPROC.2004.840301

 J. VandeVondele, J. Hutter.
 J. Chem. Phys. 118, 4365-4369 (2003).
 An efficient orbital transformation method for electronic structure 
 calculations.
 https://doi.org/10.1063/1.1543154

 C. Hartwigsen, S. Goedecker, J. Hutter.
 Phys. Rev. B 58, 3641-3662 (1998).
 Relativistic separable dual-space Gaussian pseudopotentials from H to Rn.
 https://doi.org/10.1103/PhysRevB.58.3641

 G. Lippert, J. Hutter, M. Parrinello.
 Mol. Phys. 92, 477-487 (1997).
 A hybrid Gaussian and plane wave density functional scheme.
 https://doi.org/10.1080/002689797170220

 S. Goedecker, M. Teter, J. Hutter.
 Phys. Rev. B 54, 1703-1710 (1996).
 Separable dual-space Gaussian pseudopotentials.
 https://doi.org/10.1103/PhysRevB.54.1703

 J. P. Perdew, K. Burke, M. Ernzerhof.
 Phys. Rev. Lett. 77, 3865-3868 (1996).
 Generalized gradient approximation made simple.
 https://doi.org/10.1103/PhysRevLett.77.3865


 -------------------------------------------------------------------------------
 -                                                                             -
 -                                T I M I N G                                  -
 -                                                                             -
 -------------------------------------------------------------------------------
 SUBROUTINE                       CALLS  ASD         SELF TIME        TOTAL TIME
                                MAXIMUM       AVERAGE  MAXIMUM  AVERAGE  MAXIMUM
 CP2K                                 1  1.0    0.020    0.031  214.742  214.744
 qs_energies                          1  2.0    0.000    0.000  214.437  214.439
 active_space_main                    1  3.0    0.118    0.118  108.828  108.829
 rsdft_embedding                      1  4.0    0.077    0.077  106.222  106.223
 scf_env_do_scf                       1  3.0    0.000    0.000  104.756  104.759
 scf_env_do_scf_inner_loop           71  4.0    0.002    0.005  104.756  104.758
 mp_bcast_av                        532  1.0    0.002    0.002   98.668  100.768
 mp_bcast_i                         533  2.0   98.666  100.766   98.666  100.766
 send_fock_to_client                  1  5.0    0.001    0.001  100.764  100.765
 readbuffer_s                         4  6.0    2.099  100.764    2.099  100.764
 qs_ks_update_qs_env                 72  5.0    0.001    0.001   60.075   60.085
 rebuild_ks_matrix                   72  6.0    0.000    0.000   60.054   60.064
 qs_ks_build_kohn_sham_matrix        72  7.0    0.010    0.011   60.053   60.064
 integrate_v_rspace                  73  9.0    0.002    0.003   33.617   33.642
 sum_up_and_integrate                72  8.0    0.001    0.001   33.232   33.243
 qs_rho_update_rho_low               73  5.0    0.000    0.000   29.604   29.606
 calculate_rho_elec                  73  6.0    0.073    0.087   29.604   29.606
 fft_wrap_pw1pw2                   1511  9.8    0.022    0.026   29.076   29.571
 fft_wrap_pw1pw2_250                907 11.1    0.882    0.970   27.743   28.299
 grid_integrate_task_list            73 10.0   16.948   25.205   16.948   25.205
 fft3d_ps                          1511 11.8   10.725   13.562   22.378   23.421
 qs_vxc_create                       72  8.0    0.002    0.002   21.800   22.039
 xc_vxc_pw_create                    72  9.0    0.160    0.215   21.798   22.037
 grid_collocate_task_list            73  7.0   15.257   21.668   15.257   21.668
 density_rs2pw                       73  7.0    0.003    0.004   13.880   16.187
 xc_pw_derive                       432 11.0    0.005    0.006   15.426   16.051
 mp_waitany                       17986 11.4    9.926   12.150    9.926   12.150
 mp_alltoall_z22v                  1511 13.8    9.291   11.858    9.291   11.858
 xc_rho_set_and_dset_create          72 10.0    0.151    0.203   10.864   11.498
 transfer_rs2pw                     392  7.9    0.005    0.007    9.168   11.250
 mp_alltoall_d11v                  1145  9.2    8.413   10.826    8.413   10.826
 xc_pw_divergence                    72 10.0    0.002    0.003   10.329   10.740
 rs_gather_matrices                  73 10.0    0.007    0.009    8.284   10.724
 transfer_rs2pw_250                  80  8.8    0.537    0.926    7.450    9.541
 qs_scf_new_mos                      71  5.0    0.001    0.001    8.824    8.850
 potential_pw2rs                     73 10.0    0.007    0.008    8.382    8.400
 eigensolver                         71  6.0    0.005    0.009    8.384    8.400
 gspace_mixing                       70  5.0    0.069    0.084    8.340    8.342
 x_to_yz                            669 13.0    1.283    1.638    6.130    7.013
 cp_fm_diag_elpa                     72  7.0    0.000    0.000    6.815    6.844
 cp_fm_diag_elpa_base                72  8.0    6.744    6.770    6.788    6.800
 yz_to_x                            540 12.9    0.984    1.262    5.412    6.714
 broyden_mixing                      70  6.0    5.182    5.462    5.854    5.925
 transfer_pw2rs                     366 11.0    0.003    0.004    5.447    5.453
 -------------------------------------------------------------------------------

 The number of warnings for this run is : 73
 
 -------------------------------------------------------------------------------
  **** **** ******  **  PROGRAM ENDED AT                 2024-11-02 08:52:55.985
 ***** ** ***  *** **   PROGRAM RAN ON                              e4eb1e04f0d6
 **    ****   ******    PROGRAM RAN BY                                 <unknown>
 ***** **    ** ** **   PROGRAM PROCESS ID                                   587
  **** **  *******  **  PROGRAM STOPPED IN                                  /mnt
