&FCI NORB=   5,NELEC=   2,MS2= 1,
  ORBSYM=1,1,1,1,1,
  ISYM=0,
 /
 7.9461823824697589E-02   1   1   1   1
 5.0410073980564323E-05   1   1   1   2
-2.2261112174514375E-04   1   1   1   3
-7.2875494008046212E-04   1   1   1   4
 4.6847599030160427E-04   1   1   1   5
 7.5822078670681067E-02   1   1   2   2
-2.3441971147949948E-05   1   1   2   3
-8.0657534720734027E-04   1   1   2   4
 8.9302709434437174E-04   1   1   2   5
 7.4728623517895429E-02   1   1   3   3
 8.8477903514331266E-04   1   1   3   4
 5.6444024093294681E-04   1   1   3   5
 6.9976667042528432E-02   1   1   4   4
 5.6970471208682319E-04   1   1   4   5
 7.0668563397299308E-02   1   1   5   5
 1.5518274521059889E-03   1   2   1   2
 4.6283359559555826E-05   1   2   1   3
-5.3967114716677706E-05   1   2   1   4
 1.0490819423214233E-04   1   2   1   5
 2.6262971059009367E-05   1   2   2   2
 1.4371935932425519E-04   1   2   2   3
 1.4951709711735140E-05   1   2   2   4
 2.2969068386890341E-04   1   2   2   5
-4.6869967976056028E-05   1   2   3   3
 1.1835844775274811E-04   1   2   3   4
 1.5754005695264774E-05   1   2   3   5
-1.3417146587709091E-04   1   2   4   4
-2.0988325171222650E-05   1   2   4   5
-1.1381816962689791E-05   1   2   5   5
 1.5284888586459132E-03   1   3   1   3
 3.3285514952900057E-04   1   3   1   4
-3.2425582443966998E-04   1   3   1   5
-4.6286431258078662E-04   1   3   2   2
 1.1199513029818442E-04   1   3   2   3
 2.5300872207964633E-04   1   3   2   4
-1.6039231469120580E-04   1   3   2   5
 1.1435445601589743E-04   1   3   3   3
-3.9733588909138143E-04   1   3   3   4
-3.4156115689474110E-05   1   3   3   5
 9.0354173029403125E-05   1   3   4   4
 7.6880993374107482E-05   1   3   4   5
-3.4572651256093481E-05   1   3   5   5
 1.4750600099270603E-03   1   4   1   4
-1.3229357901561951E-04   1   4   1   5
-9.7405560861191644E-04   1   4   2   2
 9.5205792685676573E-05   1   4   2   3
 8.6920710281550035E-05   1   4   2   4
-3.7094024729299966E-04   1   4   2   5
-1.6571201719942148E-04   1   4   3   3
-6.5479079106344428E-04   1   4   3   4
-7.6129772056013361E-05   1   4   3   5
 1.4458550552216503E-04   1   4   4   4
-1.3449812357996396E-04   1   4   4   5
-2.8659033560802583E-04   1   4   5   5
 1.5070118365814258E-03   1   5   1   5
 6.9578817159419298E-04   1   5   2   2
-1.7978878454651890E-04   1   5   2   3
-4.2261805303836096E-04   1   5   2   4
 2.6309389923207237E-04   1   5   2   5
-3.3472893377160654E-07   1   5   3   3
 3.6237399478080567E-04   1   5   3   4
 4.0055796001281038E-05   1   5   3   5
-1.4463188392114512E-04   1   5   4   4
 3.0978994056217915E-06   1   5   4   5
 1.3870942721938892E-04   1   5   5   5
 7.8804656668716611E-02   2   2   2   2
-1.5438281878064344E-04   2   2   2   3
-8.0385276857238269E-04   2   2   2   4
 9.7502249003454449E-04   2   2   2   5
 7.4856951744087463E-02   2   2   3   3
 1.0443935843428473E-03   2   2   3   4
 4.4438106164722919E-04   2   2   3   5
 7.0073354484424949E-02   2   2   4   4
 3.8020721091458216E-04   2   2   4   5
 7.0882878589020357E-02   2   2   5   5
 1.4545495739853951E-03   2   3   2   3
 5.4699048746615081E-05   2   3   2   4
 1.0512006459300577E-04   2   3   2   5
 5.7227909976686965E-05   2   3   3   3
-3.2507769959965623E-05   2   3   3   4
 7.0013809692537216E-05   2   3   3   5
 1.1685303242423864E-04   2   3   4   4
 5.8928194687412068E-05   2   3   4   5
 1.1121819332853106E-04   2   3   5   5
 1.3954477076080329E-03   2   4   2   4
-5.1235740626406109E-04   2   4   2   5
-3.6318335998750486E-04   2   4   3   3
-2.6787150369804111E-04   2   4   3   4
-5.2919418865150436E-05   2   4   3   5
-1.1829383493918177E-04   2   4   4   4
-4.9663792828346637E-05   2   4   4   5
-2.1421739968434787E-04   2   4   5   5
 1.8609461109677734E-03   2   5   2   5
 1.8301963387866861E-04   2   5   3   3
 3.4143092897341831E-04   2   5   3   4
 3.1323769906442512E-04   2   5   3   5
-1.0249119454465569E-04   2   5   4   4
 2.1016252373271254E-04   2   5   4   5
 3.8940070483667333E-04   2   5   5   5
 7.7473319885149786E-02   3   3   3   3
 1.2987526461765526E-04   3   3   3   4
 2.5694942979471818E-04   3   3   3   5
 7.0229312236319716E-02   3   3   4   4
 4.3006855651325923E-04   3   3   4   5
 7.0101034566754233E-02   3   3   5   5
 1.7540352386944621E-03   3   4   3   4
 3.1299265746485789E-04   3   4   3   5
 2.8395084357008319E-05   3   4   4   4
 1.3419899692881837E-04   3   4   4   5
 5.9168902408165687E-04   3   4   5   5
 1.2794072790646483E-03   3   5   3   5
-5.2302853322435948E-05   3   5   4   4
 1.5235435174507572E-04   3   5   4   5
 1.6981134149356305E-04   3   5   5   5
 6.9913798528542154E-02   4   4   4   4
 5.9201055389945757E-04   4   4   4   5
 6.7227341342472435E-02   4   4   5   5
 1.2623692506526156E-03   4   5   4   5
 5.7603955432356890E-04   4   5   5   5
 7.0351725318379521E-02   5   5   5   5
-1.3212836337543538E-01   1   1   0   0
-1.2000661401824037E-03   1   2   0   0
-3.0591164569735612E-03   1   3   0   0
 4.1036350295038486E-03   1   4   0   0
 3.1824936492444470E-03   1   5   0   0
-1.3024639088875209E-01   2   2   0   0
 2.5144836599244277E-04   2   3   0   0
 1.9144985211670940E-03   2   4   0   0
-3.6768894394201531E-03   2   5   0   0
-1.3424577682923144E-01   3   3   0   0
 1.3339508244931864E-03   3   4   0   0
 1.2597574037440504E-03   3   5   0   0
-1.2773908061228237E-01   4   4   0   0
 6.9682922938805872E-04   4   5   0   0
-1.2822335646284397E-01   5   5   0   0
-2.4127760133725323E+02   0   0   0   0
