 DBCSR| CPU Multiplication driver                                           XSMM (U)
 DBCSR| Multrec recursion limit                                              512 (U)
 DBCSR| Multiplication stack size                                           1000 (D)
 DBCSR| Maximum elements for images                                    UNLIMITED (U)
 DBCSR| Multiplicative factor virtual images                                   1 (U)
 DBCSR| Use multiplication densification                                       T (D)
 DBCSR| Multiplication size stacks                                             3 (U)
 DBCSR| Use memory pool for CPU allocation                                     F (U)
 DBCSR| Number of 3D layers                                               SINGLE (U)
 DBCSR| Use MPI memory allocation                                              T (U)
 DBCSR| Use RMA algorithm                                                      F (U)
 DBCSR| Use Communication thread                                               T (U)
 DBCSR| Communication thread load                                             83 (D)
 DBCSR| MPI: My process id                                                     0
 DBCSR| MPI: Number of processes                                              16
 DBCSR| OMP: Current number of threads                                         2
 DBCSR| OMP: Max number of threads                                             2
 DBCSR| Split modifier for TAS multiplication algorithm                  1.0E+00 (U)


  **** **** ******  **  PROGRAM STARTED AT               2024-08-22 09:46:26.611
 ***** ** ***  *** **   PROGRAM STARTED ON                          4027041aedb4
 **    ****   ******    PROGRAM STARTED BY                             <unknown>
 ***** **    ** ** **   PROGRAM PROCESS ID                                   587
  **** **  *******  **  PROGRAM STARTED IN                                  /mnt

 CP2K| version string:                                       CP2K version 2024.2
 CP2K| source code revision number:                                  git:615b0eb
 CP2K| cp2kflags: omp libint fftw3 libxc libgrpp pexsi elpa parallel scalapack c
 CP2K|            osma quip xsmm plumed2 spglib libdftd4 sirius libvori libbqb l
 CP2K|            libtorch libvdwxc hdf5
 CP2K| is freely available from                            https://www.cp2k.org/
 CP2K| Program compiled at                          Mon Aug 12 15:42:01 UTC 2024
 CP2K| Program compiled on                                          28cbc1ee97e9
 CP2K| Program compiled for                                                local
 CP2K| Data directory path                                        /opt/cp2k/data
 CP2K| Input file name                                    Al111_active_space.inp

 GLOBAL| Force Environment number                                              1
 GLOBAL| Basis set file name                                        BASIS_MOLOPT
 GLOBAL| Potential file name                                           POTENTIAL
 GLOBAL| MM Potential file name                                     MM_POTENTIAL
 GLOBAL| Coordinate file name                                      __STD_INPUT__
 GLOBAL| Method name                                                        CP2K
 GLOBAL| Project name                                         Al111_active_space
 GLOBAL| Run type                                                         ENERGY
 GLOBAL| FFT library                                                       FFTW3
 GLOBAL| Diagonalization library                                            ELPA
 GLOBAL| DGEMM library                                                      BLAS
 GLOBAL| Minimum number of eigenvectors for ELPA usage                        16
 GLOBAL| Orthonormality check for eigenvectors                          DISABLED
 GLOBAL| Matrix multiplication library                                     COSMA
 GLOBAL| All-to-all communication in single precision                          F
 GLOBAL| FFTs using library dependent lengths                                  F
 GLOBAL| Grid backend                                                       AUTO
 GLOBAL| Global print level                                               MEDIUM
 GLOBAL| MPI I/O enabled                                                       T
 GLOBAL| Total number of message passing processes                            16
 GLOBAL| Number of threads for this process                                    2
 GLOBAL| This output is from process                                           0
 GLOBAL| Stack size for threads created by OpenMP (OMP_STACKSIZE)            16M
 GLOBAL| CPU model name                                  AMD EPYC 7R13 Processor
 GLOBAL| CPUID                                                              1002
 GLOBAL| Compiled for CPUID                                                    0

 *** HINT in environment.F:921 :: The compiler target flags (generic) used ***
 *** to build this binary cannot exploit all extensions of this CPU model  ***
 *** (x86_avx2). Consider compiler target flags as part of FCFLAGS and     ***
 *** CFLAGS (ARCH file).                                                   ***


 MEMORY| system memory details [Kb]
 MEMORY|                        rank 0           min           max       average
 MEMORY| MemTotal            387819256     387819256     387819256     387819256
 MEMORY| MemFree             373688952     373688952     373688952     373688952
 MEMORY| Buffers                 71184         71184         71184         71184
 MEMORY| Cached                7169776       7169776       7169776       7169776
 MEMORY| Slab                  1102844       1102844       1102844       1102844
 MEMORY| SReclaimable           539872        539872        539872        539872
 MEMORY| MemLikelyFree       381469784     381469784     381469784     381469784


 *** Fundamental physical constants (SI units) ***

 *** Literature: B. J. Mohr and B. N. Taylor,
 ***             CODATA recommended values of the fundamental physical
 ***             constants: 2006, Web Version 5.1
 ***             http://physics.nist.gov/constants

 Speed of light in vacuum [m/s]                             2.99792458000000E+08
 Magnetic constant or permeability of vacuum [N/A**2]       1.25663706143592E-06
 Electric constant or permittivity of vacuum [F/m]          8.85418781762039E-12
 Planck constant (h) [J*s]                                  6.62606896000000E-34
 Planck constant (h-bar) [J*s]                              1.05457162825177E-34
 Elementary charge [C]                                      1.60217648700000E-19
 Electron mass [kg]                                         9.10938215000000E-31
 Electron g factor [ ]                                     -2.00231930436220E+00
 Proton mass [kg]                                           1.67262163700000E-27
 Fine-structure constant                                    7.29735253760000E-03
 Rydberg constant [1/m]                                     1.09737315685270E+07
 Avogadro constant [1/mol]                                  6.02214179000000E+23
 Boltzmann constant [J/K]                                   1.38065040000000E-23
 Atomic mass unit [kg]                                      1.66053878200000E-27
 Bohr radius [m]                                            5.29177208590000E-11

 *** Conversion factors ***

 [u] -> [a.u.]                                              1.82288848426455E+03
 [Angstrom] -> [Bohr] = [a.u.]                              1.88972613288564E+00
 [a.u.] = [Bohr] -> [Angstrom]                              5.29177208590000E-01
 [a.u.] -> [s]                                              2.41888432650478E-17
 [a.u.] -> [fs]                                             2.41888432650478E-02
 [a.u.] -> [J]                                              4.35974393937059E-18
 [a.u.] -> [N]                                              8.23872205491840E-08
 [a.u.] -> [K]                                              3.15774647902944E+05
 [a.u.] -> [kJ/mol]                                         2.62549961709828E+03
 [a.u.] -> [kcal/mol]                                       6.27509468713739E+02
 [a.u.] -> [Pa]                                             2.94210107994716E+13
 [a.u.] -> [bar]                                            2.94210107994716E+08
 [a.u.] -> [atm]                                            2.90362800883016E+08
 [a.u.] -> [eV]                                             2.72113838565563E+01
 [a.u.] -> [Hz]                                             6.57968392072181E+15
 [a.u.] -> [1/cm] (wave numbers)                            2.19474631370540E+05
 [a.u./Bohr**2] -> [1/cm]                                   5.14048714338585E+03
 

 CELL_TOP| Volume [angstrom^3]:                                       833.728347
 CELL_TOP| Vector a [angstrom     5.665     0.000     0.000   |a| =     5.664823
 CELL_TOP| Vector b [angstrom     2.832     4.906     0.000   |b| =     5.664823
 CELL_TOP| Vector c [angstrom     0.000     0.000    30.000   |c| =    30.000000
 CELL_TOP| Angle (b,c), alpha [degree]:                                90.000000
 CELL_TOP| Angle (a,c), beta  [degree]:                                90.000000
 CELL_TOP| Angle (a,b), gamma [degree]:                                60.000001
 CELL_TOP| Numerically orthorhombic:                                          NO
 CELL_TOP| Periodicity                                                        XY

 GENERATE|  Preliminary Number of Bonds generated:                             0
 GENERATE|  Achieved consistency in connectivity generation.

 CELL| Volume [angstrom^3]:                                           833.728347
 CELL| Vector a [angstrom]:       5.665     0.000     0.000   |a| =     5.664823
 CELL| Vector b [angstrom]:       2.832     4.906     0.000   |b| =     5.664823
 CELL| Vector c [angstrom]:       0.000     0.000    30.000   |c| =    30.000000
 CELL| Angle (b,c), alpha [degree]:                                    90.000000
 CELL| Angle (a,c), beta  [degree]:                                    90.000000
 CELL| Angle (a,b), gamma [degree]:                                    60.000001
 CELL| Numerically orthorhombic:                                              NO
 CELL| Periodicity                                                            XY

 CELL_REF| Volume [angstrom^3]:                                       833.728347
 CELL_REF| Vector a [angstrom     5.665     0.000     0.000   |a| =     5.664823
 CELL_REF| Vector b [angstrom     2.832     4.906     0.000   |b| =     5.664823
 CELL_REF| Vector c [angstrom     0.000     0.000    30.000   |c| =    30.000000
 CELL_REF| Angle (b,c), alpha [degree]:                                90.000000
 CELL_REF| Angle (a,c), beta  [degree]:                                90.000000
 CELL_REF| Angle (a,b), gamma [degree]:                                60.000001
 CELL_REF| Numerically orthorhombic:                                          NO
 CELL_REF| Periodicity                                                        XY

 *******************************************************************************
 *******************************************************************************
 **                                                                           **
 **     #####                         ##              ##                      **
 **    ##   ##            ##          ##              ##                      **
 **   ##     ##                       ##            ######                    **
 **   ##     ##  ##   ##  ##   #####  ##  ##   ####   ##    #####    #####    **
 **   ##     ##  ##   ##  ##  ##      ## ##   ##      ##   ##   ##  ##   ##   **
 **   ##  ## ##  ##   ##  ##  ##      ####     ###    ##   ######   ######    **
 **    ##  ###   ##   ##  ##  ##      ## ##      ##   ##   ##       ##        **
 **     #######   #####   ##   #####  ##  ##  ####    ##    #####   ##        **
 **           ##                                                    ##        **
 **                                                                           **
 **                                                ... make the atoms dance   **
 **                                                                           **
 **            Copyright (C) by CP2K developers group (2000-2024)             **
 **                      J. Chem. Phys. 152, 194103 (2020)                    **
 **                                                                           **
 *******************************************************************************

 DFT| Spin restricted Kohn-Sham (RKS) calculation                            RKS
 DFT| Multiplicity                                                             1
 DFT| Number of spin states                                                    1
 DFT| Charge                                                                   0
 DFT| Self-interaction correction (SIC)                                       NO
 DFT| Cutoffs: density                                              1.000000E-10
 DFT|          gradient                                             1.000000E-10
 DFT|          tau                                                  1.000000E-10
 DFT|          cutoff_smoothing_range                               0.000000E+00
 DFT| XC density smoothing                                                  NONE
 DFT| XC derivatives                                                          PW

 FUNCTIONAL| PBE:
 FUNCTIONAL| J.P.Perdew, K.Burke, M.Ernzerhof, Phys. Rev. Letter, vol. 77, n 18,
 FUNCTIONAL|  pp. 3865-3868, (1996) {spin unpolarized}                          

 vdW POTENTIAL|                                                   Pair Potential
 vdW POTENTIAL|          DFT-D4(Version 3.6.0)
 vdW POTENTIAL|          see https://github.com/dftd4/dftd4
 vdW POTENTIAL|          E. Caldeweyher et al, PCCP 22: 8499 (2020)
 vdW POTENTIAL|          E. Caldeweyher et al, JCP 150: 154122 (2019)
 vdW POTENTIAL|          E. Caldeweyher et al, JCP 147: 034112 (2017)

 QS| Method:                                                                 GPW
 QS| Density plane wave grid type                        NON-SPHERICAL FULLSPACE
 QS| Number of grid levels:                                                    5
 QS| Density cutoff [a.u.]:                                                300.0
 QS| Multi grid cutoff [a.u.]: 1) grid level                               300.0
 QS|                           2) grid level                               100.0
 QS|                           3) grid level                                33.3
 QS|                           4) grid level                                11.1
 QS|                           5) grid level                                 3.7
 QS| Grid level progression factor:                                          3.0
 QS| Relative density cutoff [a.u.]:                                        30.0
 QS| Interaction thresholds: eps_pgf_orb:                                1.0E-05
 QS|                         eps_filter_matrix:                          0.0E+00
 QS|                         eps_core_charge:                            1.0E-12
 QS|                         eps_rho_gspace:                             1.0E-10
 QS|                         eps_rho_rspace:                             1.0E-10
 QS|                         eps_gvg_rspace:                             1.0E-05
 QS|                         eps_ppl:                                    1.0E-02
 QS|                         eps_ppnl:                                   1.0E-07


 ATOMIC KIND INFORMATION

  1. Atomic kind: Al                                    Number of atoms:      16

     Orbital Basis Set                                        DZVP-MOLOPT-SR-GTH

       Number of orbital shell sets:                                           1
       Number of orbital shells:                                               5
       Number of primitive Cartesian functions:                                4
       Number of Cartesian basis functions:                                   14
       Number of spherical basis functions:                                   13
       Norm type:                                                              2

       Normalised Cartesian orbitals:

                        Set   Shell   Orbital            Exponent    Coefficient

                          1       1    2s                1.212902       0.147703
                                                         0.454181       0.176942
                                                         0.242419      -0.255412
                                                         0.078268      -0.047918

                          1       2    3s                1.212902      -0.205401
                                                         0.454181      -0.282784
                                                         0.242419       0.451246
                                                         0.078268      -0.188270

                          1       3    3px               1.212902       0.054477
                                                         0.454181       0.028713
                                                         0.242419      -0.164201
                                                         0.078268      -0.027375
                          1       3    3py               1.212902       0.054477
                                                         0.454181       0.028713
                                                         0.242419      -0.164201
                                                         0.078268      -0.027375
                          1       3    3pz               1.212902       0.054477
                                                         0.454181       0.028713
                                                         0.242419      -0.164201
                                                         0.078268      -0.027375

                          1       4    4px               1.212902      -0.161995
                                                         0.454181       0.034524
                                                         0.242419       0.284421
                                                         0.078268      -0.077718
                          1       4    4py               1.212902      -0.161995
                                                         0.454181       0.034524
                                                         0.242419       0.284421
                                                         0.078268      -0.077718
                          1       4    4pz               1.212902      -0.161995
                                                         0.454181       0.034524
                                                         0.242419       0.284421
                                                         0.078268      -0.077718

                          1       5    4dx2              1.212902       0.283929
                                                         0.454181       0.086552
                                                         0.242419       0.083045
                                                         0.078268       0.004803
                          1       5    4dxy              1.212902       0.491779
                                                         0.454181       0.149912
                                                         0.242419       0.143839
                                                         0.078268       0.008319
                          1       5    4dxz              1.212902       0.491779
                                                         0.454181       0.149912
                                                         0.242419       0.143839
                                                         0.078268       0.008319
                          1       5    4dy2              1.212902       0.283929
                                                         0.454181       0.086552
                                                         0.242419       0.083045
                                                         0.078268       0.004803
                          1       5    4dyz              1.212902       0.491779
                                                         0.454181       0.149912
                                                         0.242419       0.143839
                                                         0.078268       0.008319
                          1       5    4dz2              1.212902       0.283929
                                                         0.454181       0.086552
                                                         0.242419       0.083045
                                                         0.078268       0.004803

       Atomic covalent radius [Angstrom]:                                  1.180

       Atomic van der Waals radius [Angstrom]:                             1.840

     GTH Potential information for                                    GTH-PBE-q3

       Description:                       Goedecker-Teter-Hutter pseudopotential
                                           Goedecker et al., PRB 54, 1703 (1996)
                                          Hartwigsen et al., PRB 58, 3641 (1998)
                                                      Krack, TCA 114, 145 (2005)

       Gaussian exponent of the core charge distribution:               2.469136
       Electronic configuration (s p d ...):                               2   1

       Parameters of the local part of the GTH pseudopotential:

                          rloc        C1          C2          C3          C4
                        0.450000   -7.554761

       Parameters of the non-local part of the GTH pseudopotential:

                   l      r(l)      h(i,j,l)

                   0    0.487435    6.959938   -1.888836
                                   -1.888836    2.438477
                   1    0.562189    1.865299


 MOLECULE KIND INFORMATION


 All atoms are their own molecule, skipping detailed information


 TOTAL NUMBERS AND MAXIMUM NUMBERS

  Total number of            - Atomic kinds:                                   1
                             - Atoms:                                         16
                             - Shell sets:                                    16
                             - Shells:                                        80
                             - Primitive Cartesian functions:                 64
                             - Cartesian basis functions:                    224
                             - Spherical basis functions:                    208

  Maximum angular momentum of- Orbital basis functions:                        2
                             - Local part of the GTH pseudopotential:          0
                             - Non-local part of the GTH pseudopotential:      2


 MODULE QUICKSTEP: ATOMIC COORDINATES IN ANGSTROM

   Atom Kind Element         X             Y             Z       Z(eff)     Mass
      1    1 Al   13      0.000000     -0.000000      9.974396   3.0000  26.9815
      2    1 Al   13      2.832411     -0.000000      9.974396   3.0000  26.9815
      3    1 Al   13      1.416206      2.452940      9.974396   3.0000  26.9815
      4    1 Al   13      4.248617      2.452940      9.974396   3.0000  26.9815
      5    1 Al   13      1.416206      0.817647     12.306677   3.0000  26.9815
      6    1 Al   13      4.248617      0.817647     12.306677   3.0000  26.9815
      7    1 Al   13      2.832411      3.270587     12.306677   3.0000  26.9815
      8    1 Al   13      5.664823      3.270587     12.306677   3.0000  26.9815
      9    1 Al   13     -0.000001      1.635294     14.625497   3.0000  26.9815
     10    1 Al   13      2.832411      1.635294     14.625494   3.0000  26.9815
     11    1 Al   13      1.416206      4.088232     14.625498   3.0000  26.9815
     12    1 Al   13      4.248617      4.088233     14.625494   3.0000  26.9815
     13    1 Al   13     -0.000004     -0.000002     16.959567   3.0000  26.9815
     14    1 Al   13      2.832416     -0.000000     16.959568   3.0000  26.9815
     15    1 Al   13      1.416204      2.452942     16.959567   3.0000  26.9815
     16    1 Al   13      4.248619      2.452942     16.959567   3.0000  26.9815



 SCF PARAMETERS         Density guess:                                    ATOMIC
                        --------------------------------------------------------
                        max_scf:                                             300
                        max_scf_history:                                       0
                        max_diis:                                              4
                        --------------------------------------------------------
                        eps_scf:                                        1.00E-06
                        eps_scf_history:                                0.00E+00
                        eps_diis:                                       1.00E-01
                        eps_eigval:                                     1.00E-05
                        --------------------------------------------------------
                        level_shift [a.u.]:                             0.000000
                        added MOs                                        20    0
                        --------------------------------------------------------
                        Mixing method:                            BROYDEN_MIXING
                                                charge density mixing in g-space
                        --------------------------------------------------------
                        Smear method:                                FERMI_DIRAC
                        Electronic temperature [K]:                        300.0
                        Electronic temperature [a.u.]:                  9.50E-04
                        Accuracy threshold:                             1.00E-10
                        --------------------------------------------------------
                        Outer loop SCF in use 
                        No variables optimised in outer loop
                        eps_scf                                         1.00E-06
                        max_scf                                               50
                        No outer loop optimization
                        step_size                                       5.00E-01

 PW_GRID| Information for grid number                                          1
 PW_GRID| Grid distributed over                                    16 processors
 PW_GRID| Real space group dimensions                                    16    1
 PW_GRID| the grid is blocked:                                                NO
 PW_GRID| Cutoff [a.u.]                                                    300.0
 PW_GRID| spherical cutoff:                                                   NO
 PW_GRID|   Bounds   1            -45      44                Points:          90
 PW_GRID|   Bounds   2            -45      44                Points:          90
 PW_GRID|   Bounds   3           -225     224                Points:         450
 PW_GRID| Volume element (a.u.^3)  0.1544E-02     Volume (a.u.^3)      5626.2778
 PW_GRID| Grid span                                                    FULLSPACE
 PW_GRID|   Distribution                         Average         Max         Min
 PW_GRID|   G-Vectors                           227812.5      227880      227790
 PW_GRID|   G-Rays                                2531.2        2532        2531
 PW_GRID|   Real Space Points                   227812.5      243000      202500

 PW_GRID| Information for grid number                                          2
 PW_GRID| Number of the reference grid                                         1
 PW_GRID| Grid distributed over                                    16 processors
 PW_GRID| Real space group dimensions                                    16    1
 PW_GRID| the grid is blocked:                                                NO
 PW_GRID| Cutoff [a.u.]                                                    100.0
 PW_GRID| spherical cutoff:                                                   NO
 PW_GRID|   Bounds   1            -27      26                Points:          54
 PW_GRID|   Bounds   2            -27      26                Points:          54
 PW_GRID|   Bounds   3           -128     127                Points:         256
 PW_GRID| Volume element (a.u.^3)  0.7537E-02     Volume (a.u.^3)      5626.2778
 PW_GRID| Grid span                                                    FULLSPACE
 PW_GRID|   Distribution                         Average         Max         Min
 PW_GRID|   G-Vectors                            46656.0       46818       46548
 PW_GRID|   G-Rays                                 864.0         867         862
 PW_GRID|   Real Space Points                    46656.0       55296       41472

 PW_GRID| Information for grid number                                          3
 PW_GRID| Number of the reference grid                                         1
 PW_GRID| Grid distributed over                                    16 processors
 PW_GRID| Real space group dimensions                                    16    1
 PW_GRID| the grid is blocked:                                                NO
 PW_GRID| Cutoff [a.u.]                                                     33.3
 PW_GRID| spherical cutoff:                                                   NO
 PW_GRID|   Bounds   1            -13      13                Points:          27
 PW_GRID|   Bounds   2            -13      13                Points:          27
 PW_GRID|   Bounds   3            -75      74                Points:         150
 PW_GRID| Volume element (a.u.^3)  0.5145E-01     Volume (a.u.^3)      5626.2778
 PW_GRID| Grid span                                                    FULLSPACE
 PW_GRID|   Distribution                         Average         Max         Min
 PW_GRID|   G-Vectors                             6834.4        6885        6777
 PW_GRID|   G-Rays                                 253.1         255         251
 PW_GRID|   Real Space Points                     6834.4        8100        4050

 PW_GRID| Information for grid number                                          4
 PW_GRID| Number of the reference grid                                         1
 PW_GRID| Grid distributed over                                    16 processors
 PW_GRID| Real space group dimensions                                    16    1
 PW_GRID| the grid is blocked:                                                NO
 PW_GRID| Cutoff [a.u.]                                                     11.1
 PW_GRID| spherical cutoff:                                                   NO
 PW_GRID|   Bounds   1             -9       8                Points:          18
 PW_GRID|   Bounds   2             -9       8                Points:          18
 PW_GRID|   Bounds   3            -45      44                Points:          90
 PW_GRID| Volume element (a.u.^3)  0.1929         Volume (a.u.^3)      5626.2778
 PW_GRID| Grid span                                                    FULLSPACE
 PW_GRID|   Distribution                         Average         Max         Min
 PW_GRID|   G-Vectors                             1822.5        1872        1764
 PW_GRID|   G-Rays                                 101.2         104          98
 PW_GRID|   Real Space Points                     1822.5        3240        1620

 PW_GRID| Information for grid number                                          5
 PW_GRID| Number of the reference grid                                         1
 PW_GRID| Grid distributed over                                    16 processors
 PW_GRID| Real space group dimensions                                     4    4
 PW_GRID| the grid is blocked:                                                NO
 PW_GRID| Cutoff [a.u.]                                                      3.7
 PW_GRID| spherical cutoff:                                                   NO
 PW_GRID|   Bounds   1             -4       4                Points:           9
 PW_GRID|   Bounds   2             -4       4                Points:           9
 PW_GRID|   Bounds   3            -27      26                Points:          54
 PW_GRID| Volume element (a.u.^3)   1.286         Volume (a.u.^3)      5626.2778
 PW_GRID| Grid span                                                    FULLSPACE
 PW_GRID|   Distribution                         Average         Max         Min
 PW_GRID|   G-Vectors                              273.4         306         234
 PW_GRID|   G-Rays                                  30.4          34          26
 PW_GRID|   Real Space Points                      273.4         486         216

 POISSON| Solver                                                        ANALYTIC
 POISSON| Periodicity                                                         XY

 RS_GRID| Information for grid number                                          1
 RS_GRID|   Bounds   1            -45      44                Points:          90
 RS_GRID|   Bounds   2            -45      44                Points:          90
 RS_GRID|   Bounds   3           -225     224                Points:         450
 RS_GRID| Real space distribution over                                 16 groups
 RS_GRID| Real space distribution along direction                              3
 RS_GRID| Border size                                                         44
 RS_GRID|   Distribution                         Average         Max         Min
 RS_GRID|   Planes                                 116.1         117         116

 RS_GRID| Information for grid number                                          2
 RS_GRID|   Bounds   1            -27      26                Points:          54
 RS_GRID|   Bounds   2            -27      26                Points:          54
 RS_GRID|   Bounds   3           -128     127                Points:         256
 RS_GRID| Real space distribution over                                 16 groups
 RS_GRID| Real space distribution along direction                              3
 RS_GRID| Border size                                                         42
 RS_GRID|   Distribution                         Average         Max         Min
 RS_GRID|   Planes                                 100.0         100         100

 RS_GRID| Information for grid number                                          3
 RS_GRID|   Bounds   1            -13      13                Points:          27
 RS_GRID|   Bounds   2            -13      13                Points:          27
 RS_GRID|   Bounds   3            -75      74                Points:         150
 RS_GRID| Real space fully replicated
 RS_GRID| Group size                                                           1

 RS_GRID| Information for grid number                                          4
 RS_GRID|   Bounds   1             -9       8                Points:          18
 RS_GRID|   Bounds   2             -9       8                Points:          18
 RS_GRID|   Bounds   3            -45      44                Points:          90
 RS_GRID| Real space fully replicated
 RS_GRID| Group size                                                           1

 RS_GRID| Information for grid number                                          5
 RS_GRID|   Bounds   1             -4       4                Points:           9
 RS_GRID|   Bounds   2             -4       4                Points:           9
 RS_GRID|   Bounds   3            -27      26                Points:          54
 RS_GRID| Real space fully replicated
 RS_GRID| Group size                                                           1

 Number of electrons:                                                         48
 Number of occupied orbitals:                                                 24
 Number of molecular orbitals:                                                44

 Number of orbital functions:                                                208
 Number of independent orbital functions:                                    208

 Extrapolation method: initial_guess

 Atomic guess: The first density matrix is obtained in terms of atomic orbitals
               and electronic configurations assigned to each atomic kind

 Guess for atomic kind: Al

 Electronic structure
    Total number of core electrons                                         10.00
    Total number of valence electrons                                       3.00
    Total number of electrons                                              13.00
    Multiplicity                                                   not specified
    S   [  2.00  2.00] 2.00
    P   [  6.00] 1.00


 *******************************************************************************
                  Iteration          Convergence                     Energy [au]
 *******************************************************************************
                          1        0.305915E-01                  -1.859601069933
                          2        0.524000E-02                  -1.861110285590
                          3        0.579159E-05                  -1.861153364112
                          4        0.938920E-07                  -1.861153364138

 Energy components [Hartree]           Total Energy ::           -1.861153364138
                                        Band Energy ::           -0.553286143720
                                     Kinetic Energy ::            0.692453408885
                                   Potential Energy ::           -2.553606773023
                                      Virial (-V/T) ::            3.687766917250
                                        Core Energy ::           -2.745654507139
                                          XC Energy ::           -0.605922783649
                                     Coulomb Energy ::            1.490423926650
                       Total Pseudopotential Energy ::           -3.492083735852
                       Local Pseudopotential Energy ::           -3.961694608532
                    Nonlocal Pseudopotential Energy ::            0.469610872680
                                        Confinement ::            0.539758198286

 Orbital energies  State     L     Occupation   Energy[a.u.]          Energy[eV]

                       1     0          2.000      -0.248205           -6.754004

                       1     1          1.000      -0.056876           -1.547674


 Total Electron Density at R=0:                                         0.000121
 Re-scaling the density matrix to get the right number of electrons
                  # Electrons              Trace(P)               Scaling factor
                           48                47.857                        1.003


 SCF WAVEFUNCTION OPTIMIZATION


 COPIED mos_last_converged ---> mos

  Step     Update method      Time    Convergence         Total energy    Change
  ------------------------------------------------------------------------------

 *** WARNING in fm/cp_fm_elpa.F:522 :: Setting real_kernel for ELPA failed ***


 MO| EIGENVALUES AND OCCUPATION NUMBERS AFTER SCF STEP 0
 MO|
 MO|  Index      Eigenvalue [a.u.]        Eigenvalue [eV]             Occupation
 MO|      1              -0.604080             -16.437841               2.000000
 MO|      2              -0.562453             -15.305122               2.000000
 MO|      3              -0.498520             -13.565421               2.000000
 MO|      4              -0.411654             -11.201677               2.000000
 MO|      5              -0.386373             -10.513735               2.000000
 MO|      6              -0.386373             -10.513733               2.000000
 MO|      7              -0.386373             -10.513731               2.000000
 MO|      8              -0.383287             -10.429776               2.000000
 MO|      9              -0.383287             -10.429774               2.000000
 MO|     10              -0.383287             -10.429771               2.000000
 MO|     11              -0.344973              -9.387189               2.000000
 MO|     12              -0.344973              -9.387187               2.000000
 MO|     13              -0.344973              -9.387185               2.000000
 MO|     14              -0.344145              -9.364672               2.000000
 MO|     15              -0.344145              -9.364667               2.000000
 MO|     16              -0.344145              -9.364664               2.000000
 MO|     17              -0.317669              -8.644208               2.000000
 MO|     18              -0.290888              -7.915453               2.000000
 MO|     19              -0.290888              -7.915453               2.000000
 MO|     20              -0.290887              -7.915448               2.000000
 MO|     21              -0.266373              -7.248374               2.000000
 MO|     22              -0.266373              -7.248372               2.000000
 MO|     23              -0.266373              -7.248370               2.000000
 MO|     24              -0.206989              -5.632453               1.999210
 MO|     25              -0.190688              -5.188886               0.000179
 MO|     26              -0.190688              -5.188884               0.000179
 MO|     27              -0.190688              -5.188883               0.000179
 MO|     28              -0.189974              -5.169461               0.000084
 MO|     29              -0.189974              -5.169460               0.000084
 MO|     30              -0.189974              -5.169459               0.000084
 MO|     31              -0.106760              -2.905083               0.000000
 MO|     32              -0.106760              -2.905082               0.000000
 MO|     33              -0.106760              -2.905081               0.000000
 MO|     34              -0.099591              -2.710001               0.000000
 MO|     35              -0.099591              -2.710000               0.000000
 MO|     36              -0.099591              -2.709998               0.000000
 MO|     37              -0.098976              -2.693263               0.000000
 MO|     38              -0.002003              -0.054495               0.000000
 MO|     39              -0.002003              -0.054494               0.000000
 MO|     40              -0.002003              -0.054492               0.000000
 MO|     41               0.005239               0.142568               0.000000
 MO|     42               0.018460               0.502333               0.000000
 MO|     43               0.018461               0.502340               0.000000
 MO|     44               0.018461               0.502341               0.000000
 MO| Sum:                                                              48.000000
 MO| E(Fermi):           -0.199544 a.u.         -5.429869 eV

     1 NoMix/Diag. 0.10E+00    0.3     0.85400509       -35.0904177613 -3.51E+01

 *** WARNING in fm/cp_fm_elpa.F:522 :: Setting real_kernel for ELPA failed ***


 MO| EIGENVALUES AND OCCUPATION NUMBERS AFTER SCF STEP 1
 MO|
 MO|  Index      Eigenvalue [a.u.]        Eigenvalue [eV]             Occupation
 MO|      1              -0.595947             -16.216542               2.000000
 MO|      2              -0.556150             -15.133618               2.000000
 MO|      3              -0.493242             -13.421810               2.000000
 MO|      4              -0.408263             -11.109405               2.000000
 MO|      5              -0.378125             -10.289296               2.000000
 MO|      6              -0.378125             -10.289294               2.000000
 MO|      7              -0.378125             -10.289292               2.000000
 MO|      8              -0.375238             -10.210733               2.000000
 MO|      9              -0.375237             -10.210731               2.000000
 MO|     10              -0.375237             -10.210729               2.000000
 MO|     11              -0.339104              -9.227500               2.000000
 MO|     12              -0.339104              -9.227496               2.000000
 MO|     13              -0.339104              -9.227493               2.000000
 MO|     14              -0.337387              -9.180777               2.000000
 MO|     15              -0.337387              -9.180774               2.000000
 MO|     16              -0.337387              -9.180772               2.000000
 MO|     17              -0.314383              -8.554785               2.000000
 MO|     18              -0.285432              -7.767009               2.000000
 MO|     19              -0.285432              -7.767008               2.000000
 MO|     20              -0.285432              -7.767004               2.000000
 MO|     21              -0.261236              -7.108597               2.000000
 MO|     22              -0.261236              -7.108595               2.000000
 MO|     23              -0.261236              -7.108594               2.000000
 MO|     24              -0.204243              -5.557741               1.999266
 MO|     25              -0.188083              -5.117997               0.000223
 MO|     26              -0.188083              -5.117995               0.000223
 MO|     27              -0.188083              -5.117995               0.000223
 MO|     28              -0.185871              -5.057794               0.000022
 MO|     29              -0.185870              -5.057793               0.000022
 MO|     30              -0.185870              -5.057792               0.000022
 MO|     31              -0.104030              -2.830806               0.000000
 MO|     32              -0.104030              -2.830805               0.000000
 MO|     33              -0.104030              -2.830804               0.000000
 MO|     34              -0.097344              -2.648854               0.000000
 MO|     35              -0.095744              -2.605323               0.000000
 MO|     36              -0.095744              -2.605323               0.000000
 MO|     37              -0.095744              -2.605321               0.000000
 MO|     38               0.000729               0.019834               0.000000
 MO|     39               0.000729               0.019835               0.000000
 MO|     40               0.000729               0.019837               0.000000
 MO|     41               0.006803               0.185123               0.000000
 MO|     42               0.023305               0.634157               0.000000
 MO|     43               0.023305               0.634165               0.000000
 MO|     44               0.023305               0.634165               0.000000
 MO| Sum:                                                              48.000000
 MO| E(Fermi):           -0.196729 a.u.         -5.353274 eV

     2 Broy./Diag. 0.10E+00    0.4     0.04710962       -34.2748140177  8.16E-01

 *** WARNING in fm/cp_fm_elpa.F:522 :: Setting real_kernel for ELPA failed ***


 MO| EIGENVALUES AND OCCUPATION NUMBERS AFTER SCF STEP 2
 MO|
 MO|  Index      Eigenvalue [a.u.]        Eigenvalue [eV]             Occupation
 MO|      1              -0.567897             -15.453275               2.000000
 MO|      2              -0.533133             -14.507298               2.000000
 MO|      3              -0.473985             -12.897786               2.000000
 MO|      4              -0.395810             -10.770541               2.000000
 MO|      5              -0.349675              -9.515143               2.000000
 MO|      6              -0.349675              -9.515141               2.000000
 MO|      7              -0.349675              -9.515139               2.000000
 MO|      8              -0.347530              -9.456766               2.000000
 MO|      9              -0.347530              -9.456764               2.000000
 MO|     10              -0.347530              -9.456762               2.000000
 MO|     11              -0.317383              -8.636418               2.000000
 MO|     12              -0.317382              -8.636417               2.000000
 MO|     13              -0.317382              -8.636415               2.000000
 MO|     14              -0.312824              -8.512387               2.000000
 MO|     15              -0.312824              -8.512378               2.000000
 MO|     16              -0.312824              -8.512376               2.000000
 MO|     17              -0.301453              -8.202942               2.000000
 MO|     18              -0.265188              -7.216140               2.000000
 MO|     19              -0.265188              -7.216140               2.000000
 MO|     20              -0.265188              -7.216137               2.000000
 MO|     21              -0.243044              -6.613574               2.000000
 MO|     22              -0.243044              -6.613572               2.000000
 MO|     23              -0.243044              -6.613569               2.000000
 MO|     24              -0.193775              -5.272875               1.998872
 MO|     25              -0.178517              -4.857698               0.000376
 MO|     26              -0.178517              -4.857697               0.000376
 MO|     27              -0.178517              -4.857696               0.000376
 MO|     28              -0.170920              -4.650974               0.000000
 MO|     29              -0.170920              -4.650972               0.000000
 MO|     30              -0.170920              -4.650970               0.000000
 MO|     31              -0.092567              -2.518866               0.000000
 MO|     32              -0.092567              -2.518865               0.000000
 MO|     33              -0.092567              -2.518864               0.000000
 MO|     34              -0.090587              -2.465004               0.000000
 MO|     35              -0.080611              -2.193548               0.000000
 MO|     36              -0.080611              -2.193548               0.000000
 MO|     37              -0.080611              -2.193546               0.000000
 MO|     38               0.011650               0.317008               0.000000
 MO|     39               0.011650               0.317008               0.000000
 MO|     40               0.011650               0.317010               0.000000
 MO|     41               0.013759               0.374413               0.000000
 MO|     42               0.041310               1.124098               0.000000
 MO|     43               0.041310               1.124107               0.000000
 MO|     44               0.041310               1.124108               0.000000
 MO| Sum:                                                              48.000000
 MO| E(Fermi):           -0.186668 a.u.         -5.079496 eV

     3 Broy./Diag. 0.10E+00    0.4     0.15302627       -33.7350365532  5.40E-01

 *** WARNING in fm/cp_fm_elpa.F:522 :: Setting real_kernel for ELPA failed ***


 MO| EIGENVALUES AND OCCUPATION NUMBERS AFTER SCF STEP 3
 MO|
 MO|  Index      Eigenvalue [a.u.]        Eigenvalue [eV]             Occupation
 MO|      1              -0.567893             -15.453144               2.000000
 MO|      2              -0.532479             -14.489482               2.000000
 MO|      3              -0.473283             -12.878687               2.000000
 MO|      4              -0.395718             -10.768040               2.000000
 MO|      5              -0.349798              -9.518484               2.000000
 MO|      6              -0.349798              -9.518482               2.000000
 MO|      7              -0.349798              -9.518480               2.000000
 MO|      8              -0.347389              -9.452927               2.000000
 MO|      9              -0.347389              -9.452925               2.000000
 MO|     10              -0.347389              -9.452923               2.000000
 MO|     11              -0.316415              -8.610096               2.000000
 MO|     12              -0.316415              -8.610095               2.000000
 MO|     13              -0.316415              -8.610094               2.000000
 MO|     14              -0.312528              -8.504306               2.000000
 MO|     15              -0.312527              -8.504299               2.000000
 MO|     16              -0.312527              -8.504297               2.000000
 MO|     17              -0.301329              -8.199568               2.000000
 MO|     18              -0.264497              -7.197321               2.000000
 MO|     19              -0.264497              -7.197321               2.000000
 MO|     20              -0.264497              -7.197317               2.000000
 MO|     21              -0.242306              -6.593484               2.000000
 MO|     22              -0.242306              -6.593482               2.000000
 MO|     23              -0.242306              -6.593480               2.000000
 MO|     24              -0.193679              -5.270264               1.998943
 MO|     25              -0.178298              -4.851740               0.000352
 MO|     26              -0.178298              -4.851739               0.000352
 MO|     27              -0.178298              -4.851738               0.000352
 MO|     28              -0.170949              -4.651763               0.000000
 MO|     29              -0.170949              -4.651762               0.000000
 MO|     30              -0.170949              -4.651761               0.000000
 MO|     31              -0.092467              -2.516142               0.000000
 MO|     32              -0.092467              -2.516141               0.000000
 MO|     33              -0.092466              -2.516140               0.000000
 MO|     34              -0.090534              -2.463566               0.000000
 MO|     35              -0.080476              -2.189873               0.000000
 MO|     36              -0.080476              -2.189872               0.000000
 MO|     37              -0.080476              -2.189871               0.000000
 MO|     38               0.011800               0.321089               0.000000
 MO|     39               0.011800               0.321090               0.000000
 MO|     40               0.011800               0.321092               0.000000
 MO|     41               0.013737               0.373816               0.000000
 MO|     42               0.041381               1.126045               0.000000
 MO|     43               0.041382               1.126053               0.000000
 MO|     44               0.041382               1.126054               0.000000
 MO| Sum:                                                              48.000000
 MO| E(Fermi):           -0.186511 a.u.         -5.075213 eV

     4 Broy./Diag. 0.10E+00    0.4     0.03816632       -33.8293418379 -9.43E-02

 *** WARNING in fm/cp_fm_elpa.F:522 :: Setting real_kernel for ELPA failed ***


 MO| EIGENVALUES AND OCCUPATION NUMBERS AFTER SCF STEP 4
 MO|
 MO|  Index      Eigenvalue [a.u.]        Eigenvalue [eV]             Occupation
 MO|      1              -0.565888             -15.398603               2.000000
 MO|      2              -0.524374             -14.268945               2.000000
 MO|      3              -0.464652             -12.643835               2.000000
 MO|      4              -0.390993             -10.639454               2.000000
 MO|      5              -0.348442              -9.481593               2.000000
 MO|      6              -0.348442              -9.481591               2.000000
 MO|      7              -0.348442              -9.481590               2.000000
 MO|      8              -0.344798              -9.382421               2.000000
 MO|      9              -0.344798              -9.382420               2.000000
 MO|     10              -0.344798              -9.382419               2.000000
 MO|     11              -0.308635              -8.398373               2.000000
 MO|     12              -0.308634              -8.398360               2.000000
 MO|     13              -0.308634              -8.398356               2.000000
 MO|     14              -0.303984              -8.271817               2.000000
 MO|     15              -0.303984              -8.271815               2.000000
 MO|     16              -0.303983              -8.271807               2.000000
 MO|     17              -0.296845              -8.077567               2.000000
 MO|     18              -0.255704              -6.958073               2.000000
 MO|     19              -0.255704              -6.958072               2.000000
 MO|     20              -0.255704              -6.958066               2.000000
 MO|     21              -0.233921              -6.365305               2.000000
 MO|     22              -0.233921              -6.365304               2.000000
 MO|     23              -0.233921              -6.365303               2.000000
 MO|     24              -0.189641              -5.160405               1.999424
 MO|     25              -0.173106              -4.710467               0.000192
 MO|     26              -0.173106              -4.710461               0.000192
 MO|     27              -0.173106              -4.710461               0.000192
 MO|     28              -0.166795              -4.538725               0.000000
 MO|     29              -0.166795              -4.538724               0.000000
 MO|     30              -0.166795              -4.538720               0.000000
 MO|     31              -0.088086              -2.396941               0.000000
 MO|     32              -0.088086              -2.396940               0.000000
 MO|     33              -0.088086              -2.396938               0.000000
 MO|     34              -0.086716              -2.359653               0.000000
 MO|     35              -0.075590              -2.056906               0.000000
 MO|     36              -0.075590              -2.056905               0.000000
 MO|     37              -0.075590              -2.056904               0.000000
 MO|     38               0.016264               0.442574               0.000000
 MO|     39               0.016264               0.442574               0.000000
 MO|     40               0.016264               0.442577               0.000000
 MO|     41               0.017525               0.476882               0.000000
 MO|     42               0.045592               1.240630               0.000000
 MO|     43               0.045593               1.240638               0.000000
 MO|     44               0.045593               1.240638               0.000000
 MO| Sum:                                                              48.000000
 MO| E(Fermi):           -0.181896 a.u.         -4.949654 eV

     5 Broy./Diag. 0.10E+00    0.5     0.25001552       -33.4681439112  3.61E-01

 *** WARNING in fm/cp_fm_elpa.F:522 :: Setting real_kernel for ELPA failed ***


 MO| EIGENVALUES AND OCCUPATION NUMBERS AFTER SCF STEP 5
 MO|
 MO|  Index      Eigenvalue [a.u.]        Eigenvalue [eV]             Occupation
 MO|      1              -0.566624             -15.418623               2.000000
 MO|      2              -0.526300             -14.321358               2.000000
 MO|      3              -0.466475             -12.693439               2.000000
 MO|      4              -0.392701             -10.685944               2.000000
 MO|      5              -0.349134              -9.500432               2.000000
 MO|      6              -0.349134              -9.500430               2.000000
 MO|      7              -0.349134              -9.500429               2.000000
 MO|      8              -0.345564              -9.403266               2.000000
 MO|      9              -0.345564              -9.403264               2.000000
 MO|     10              -0.345564              -9.403262               2.000000
 MO|     11              -0.308850              -8.404223               2.000000
 MO|     12              -0.308849              -8.404218               2.000000
 MO|     13              -0.308849              -8.404215               2.000000
 MO|     14              -0.307735              -8.373902               2.000000
 MO|     15              -0.307735              -8.373902               2.000000
 MO|     16              -0.307735              -8.373900               2.000000
 MO|     17              -0.298442              -8.121028               2.000000
 MO|     18              -0.257636              -7.010629               2.000000
 MO|     19              -0.257636              -7.010629               2.000000
 MO|     20              -0.257636              -7.010625               2.000000
 MO|     21              -0.235521              -6.408841               2.000000
 MO|     22              -0.235521              -6.408839               2.000000
 MO|     23              -0.235520              -6.408838               2.000000
 MO|     24              -0.191040              -5.198459               1.999368
 MO|     25              -0.174682              -4.753338               0.000210
 MO|     26              -0.174682              -4.753337               0.000210
 MO|     27              -0.174682              -4.753336               0.000210
 MO|     28              -0.168571              -4.587037               0.000000
 MO|     29              -0.168570              -4.587036               0.000000
 MO|     30              -0.168570              -4.587035               0.000000
 MO|     31              -0.089716              -2.441294               0.000000
 MO|     32              -0.089716              -2.441293               0.000000
 MO|     33              -0.089716              -2.441291               0.000000
 MO|     34              -0.088141              -2.398447               0.000000
 MO|     35              -0.077366              -2.105231               0.000000
 MO|     36              -0.077366              -2.105230               0.000000
 MO|     37              -0.077366              -2.105228               0.000000
 MO|     38               0.014792               0.402503               0.000000
 MO|     39               0.014792               0.402504               0.000000
 MO|     40               0.014792               0.402506               0.000000
 MO|     41               0.015842               0.431095               0.000000
 MO|     42               0.044019               1.197820               0.000000
 MO|     43               0.044019               1.197828               0.000000
 MO|     44               0.044019               1.197828               0.000000
 MO| Sum:                                                              48.000000
 MO| E(Fermi):           -0.183384 a.u.         -4.990122 eV

     6 Broy./Diag. 0.10E+00    0.5     0.14881123       -33.4967953327 -2.87E-02

 *** WARNING in fm/cp_fm_elpa.F:522 :: Setting real_kernel for ELPA failed ***


 MO| EIGENVALUES AND OCCUPATION NUMBERS AFTER SCF STEP 6
 MO|
 MO|  Index      Eigenvalue [a.u.]        Eigenvalue [eV]             Occupation
 MO|      1              -0.561829             -15.288155               2.000000
 MO|      2              -0.521332             -14.186158               2.000000
 MO|      3              -0.461913             -12.569294               2.000000
 MO|      4              -0.389235             -10.591628               2.000000
 MO|      5              -0.344378              -9.370994               2.000000
 MO|      6              -0.344378              -9.370993               2.000000
 MO|      7              -0.344378              -9.370991               2.000000
 MO|      8              -0.340722              -9.271513               2.000000
 MO|      9              -0.340722              -9.271512               2.000000
 MO|     10              -0.340722              -9.271511               2.000000
 MO|     11              -0.304785              -8.293611               2.000000
 MO|     12              -0.304784              -8.293598               2.000000
 MO|     13              -0.304784              -8.293595               2.000000
 MO|     14              -0.301793              -8.212199               2.000000
 MO|     15              -0.301793              -8.212197               2.000000
 MO|     16              -0.301792              -8.212190               2.000000
 MO|     17              -0.294939              -8.025706               2.000000
 MO|     18              -0.252875              -6.881087               2.000000
 MO|     19              -0.252875              -6.881086               2.000000
 MO|     20              -0.252875              -6.881081               2.000000
 MO|     21              -0.231223              -6.291907               2.000000
 MO|     22              -0.231223              -6.291905               2.000000
 MO|     23              -0.231223              -6.291905               2.000000
 MO|     24              -0.187935              -5.113960               1.999373
 MO|     25              -0.171561              -4.668407               0.000209
 MO|     26              -0.171561              -4.668403               0.000209
 MO|     27              -0.171561              -4.668402               0.000209
 MO|     28              -0.164809              -4.484692               0.000000
 MO|     29              -0.164809              -4.484691               0.000000
 MO|     30              -0.164809              -4.484690               0.000000
 MO|     31              -0.086325              -2.349019               0.000000
 MO|     32              -0.086325              -2.349017               0.000000
 MO|     33              -0.086325              -2.349016               0.000000
 MO|     34              -0.085428              -2.324601               0.000000
 MO|     35              -0.073478              -1.999429               0.000000
 MO|     36              -0.073478              -1.999428               0.000000
 MO|     37              -0.073478              -1.999427               0.000000
 MO|     38               0.018091               0.492287               0.000000
 MO|     39               0.018091               0.492287               0.000000
 MO|     40               0.018091               0.492290               0.000000
 MO|     41               0.018650               0.507489               0.000000
 MO|     42               0.048106               1.309026               0.000000
 MO|     43               0.048106               1.309034               0.000000
 MO|     44               0.048106               1.309035               0.000000
 MO| Sum:                                                              48.000000
 MO| E(Fermi):           -0.180270 a.u.         -4.905396 eV

     7 Broy./Diag. 0.10E+00    0.5     0.08857726       -33.3707380707  1.26E-01

 *** WARNING in fm/cp_fm_elpa.F:522 :: Setting real_kernel for ELPA failed ***


 MO| EIGENVALUES AND OCCUPATION NUMBERS AFTER SCF STEP 7
 MO|
 MO|  Index      Eigenvalue [a.u.]        Eigenvalue [eV]             Occupation
 MO|      1              -0.561077             -15.267689               2.000000
 MO|      2              -0.520823             -14.172316               2.000000
 MO|      3              -0.460995             -12.544300               2.000000
 MO|      4              -0.388156             -10.562251               2.000000
 MO|      5              -0.343623              -9.350466               2.000000
 MO|      6              -0.343623              -9.350464               2.000000
 MO|      7              -0.343623              -9.350462               2.000000
 MO|      8              -0.339953              -9.250597               2.000000
 MO|      9              -0.339953              -9.250595               2.000000
 MO|     10              -0.339953              -9.250592               2.000000
 MO|     11              -0.303984              -8.271827               2.000000
 MO|     12              -0.303984              -8.271826               2.000000
 MO|     13              -0.303984              -8.271818               2.000000
 MO|     14              -0.301599              -8.206915               2.000000
 MO|     15              -0.301598              -8.206900               2.000000
 MO|     16              -0.301598              -8.206898               2.000000
 MO|     17              -0.294104              -8.002970               2.000000
 MO|     18              -0.251978              -6.856682               2.000000
 MO|     19              -0.251978              -6.856682               2.000000
 MO|     20              -0.251978              -6.856680               2.000000
 MO|     21              -0.230274              -6.266062               2.000000
 MO|     22              -0.230273              -6.266060               2.000000
 MO|     23              -0.230273              -6.266057               2.000000
 MO|     24              -0.187020              -5.089068               1.999446
 MO|     25              -0.170411              -4.637116               0.000184
 MO|     26              -0.170411              -4.637115               0.000184
 MO|     27              -0.170411              -4.637114               0.000184
 MO|     28              -0.163797              -4.457156               0.000000
 MO|     29              -0.163797              -4.457154               0.000000
 MO|     30              -0.163797              -4.457152               0.000000
 MO|     31              -0.085492              -2.326366               0.000000
 MO|     32              -0.085492              -2.326365               0.000000
 MO|     33              -0.085492              -2.326364               0.000000
 MO|     34              -0.084422              -2.297240               0.000000
 MO|     35              -0.072688              -1.977929               0.000000
 MO|     36              -0.072688              -1.977928               0.000000
 MO|     37              -0.072687              -1.977927               0.000000
 MO|     38               0.018950               0.515667               0.000000
 MO|     39               0.018950               0.515668               0.000000
 MO|     40               0.018951               0.515669               0.000000
 MO|     41               0.019600               0.533338               0.000000
 MO|     42               0.048866               1.329713               0.000000
 MO|     43               0.048866               1.329722               0.000000
 MO|     44               0.048866               1.329722               0.000000
 MO| Sum:                                                              48.000000
 MO| E(Fermi):           -0.179238 a.u.         -4.877307 eV

     8 Broy./Diag. 0.10E+00    0.4     0.17662303       -33.3516496549  1.91E-02

 *** WARNING in fm/cp_fm_elpa.F:522 :: Setting real_kernel for ELPA failed ***


 MO| EIGENVALUES AND OCCUPATION NUMBERS AFTER SCF STEP 8
 MO|
 MO|  Index      Eigenvalue [a.u.]        Eigenvalue [eV]             Occupation
 MO|      1              -0.559318             -15.219807               2.000000
 MO|      2              -0.519459             -14.135189               2.000000
 MO|      3              -0.459510             -12.503908               2.000000
 MO|      4              -0.386334             -10.512678               2.000000
 MO|      5              -0.341821              -9.301423               2.000000
 MO|      6              -0.341821              -9.301421               2.000000
 MO|      7              -0.341821              -9.301419               2.000000
 MO|      8              -0.338212              -9.203229               2.000000
 MO|      9              -0.338212              -9.203227               2.000000
 MO|     10              -0.338212              -9.203224               2.000000
 MO|     11              -0.302894              -8.242168               2.000000
 MO|     12              -0.302894              -8.242167               2.000000
 MO|     13              -0.302894              -8.242159               2.000000
 MO|     14              -0.299949              -8.162023               2.000000
 MO|     15              -0.299948              -8.162008               2.000000
 MO|     16              -0.299948              -8.162005               2.000000
 MO|     17              -0.292507              -7.959516               2.000000
 MO|     18              -0.250470              -6.815646               2.000000
 MO|     19              -0.250470              -6.815645               2.000000
 MO|     20              -0.250470              -6.815643               2.000000
 MO|     21              -0.228847              -6.227238               2.000000
 MO|     22              -0.228847              -6.227236               2.000000
 MO|     23              -0.228847              -6.227233               2.000000
 MO|     24              -0.185460              -5.046617               1.999494
 MO|     25              -0.168678              -4.589952               0.000168
 MO|     26              -0.168678              -4.589951               0.000168
 MO|     27              -0.168678              -4.589950               0.000168
 MO|     28              -0.161902              -4.405591               0.000000
 MO|     29              -0.161902              -4.405588               0.000000
 MO|     30              -0.161902              -4.405586               0.000000
 MO|     31              -0.083902              -2.283079               0.000000
 MO|     32              -0.083902              -2.283078               0.000000
 MO|     33              -0.083902              -2.283077               0.000000
 MO|     34              -0.082823              -2.253722               0.000000
 MO|     35              -0.071036              -1.933001               0.000000
 MO|     36              -0.071036              -1.933000               0.000000
 MO|     37              -0.071036              -1.932999               0.000000
 MO|     38               0.020477               0.557195               0.000000
 MO|     39               0.020477               0.557196               0.000000
 MO|     40               0.020477               0.557198               0.000000
 MO|     41               0.021256               0.578415               0.000000
 MO|     42               0.050528               1.374932               0.000000
 MO|     43               0.050528               1.374941               0.000000
 MO|     44               0.050528               1.374941               0.000000
 MO| Sum:                                                              48.000000
 MO| E(Fermi):           -0.177591 a.u.         -4.832497 eV

     9 Broy./Diag. 0.10E+00    0.4     0.02462021       -33.3215135914  3.01E-02

 *** WARNING in fm/cp_fm_elpa.F:522 :: Setting real_kernel for ELPA failed ***


 MO| EIGENVALUES AND OCCUPATION NUMBERS AFTER SCF STEP 9
 MO|
 MO|  Index      Eigenvalue [a.u.]        Eigenvalue [eV]             Occupation
 MO|      1              -0.556929             -15.154807               2.000000
 MO|      2              -0.517884             -14.092333               2.000000
 MO|      3              -0.457771             -12.456594               2.000000
 MO|      4              -0.384467             -10.461889               2.000000
 MO|      5              -0.339401              -9.235577               2.000000
 MO|      6              -0.339401              -9.235575               2.000000
 MO|      7              -0.339401              -9.235573               2.000000
 MO|      8              -0.335823              -9.138214               2.000000
 MO|      9              -0.335823              -9.138212               2.000000
 MO|     10              -0.335823              -9.138210               2.000000
 MO|     11              -0.300377              -8.173670               2.000000
 MO|     12              -0.300377              -8.173667               2.000000
 MO|     13              -0.300377              -8.173665               2.000000
 MO|     14              -0.299362              -8.146053               2.000000
 MO|     15              -0.299362              -8.146049               2.000000
 MO|     16              -0.299362              -8.146047               2.000000
 MO|     17              -0.290836              -7.914047               2.000000
 MO|     18              -0.248732              -6.768350               2.000000
 MO|     19              -0.248732              -6.768349               2.000000
 MO|     20              -0.248732              -6.768345               2.000000
 MO|     21              -0.227080              -6.179159               2.000000
 MO|     22              -0.227080              -6.179157               2.000000
 MO|     23              -0.227080              -6.179156               2.000000
 MO|     24              -0.183791              -5.001210               1.999535
 MO|     25              -0.166852              -4.540264               0.000155
 MO|     26              -0.166852              -4.540263               0.000155
 MO|     27              -0.166852              -4.540262               0.000155
 MO|     28              -0.159987              -4.353461               0.000000
 MO|     29              -0.159987              -4.353460               0.000000
 MO|     30              -0.159987              -4.353459               0.000000
 MO|     31              -0.082280              -2.238954               0.000000
 MO|     32              -0.082280              -2.238953               0.000000
 MO|     33              -0.082280              -2.238951               0.000000
 MO|     34              -0.081192              -2.209352               0.000000
 MO|     35              -0.069339              -1.886810               0.000000
 MO|     36              -0.069339              -1.886809               0.000000
 MO|     37              -0.069339              -1.886808               0.000000
 MO|     38               0.022113               0.601721               0.000000
 MO|     39               0.022113               0.601722               0.000000
 MO|     40               0.022113               0.601724               0.000000
 MO|     41               0.022808               0.620642               0.000000
 MO|     42               0.052338               1.424201               0.000000
 MO|     43               0.052339               1.424209               0.000000
 MO|     44               0.052339               1.424210               0.000000
 MO| Sum:                                                              48.000000
 MO| E(Fermi):           -0.175844 a.u.         -4.784949 eV

    10 Broy./Diag. 0.10E+00    0.5     0.10017586       -33.2707194712  5.08E-02

 *** WARNING in fm/cp_fm_elpa.F:522 :: Setting real_kernel for ELPA failed ***


 MO| EIGENVALUES AND OCCUPATION NUMBERS AFTER SCF STEP 10
 MO|
 MO|  Index      Eigenvalue [a.u.]        Eigenvalue [eV]             Occupation
 MO|      1              -0.556278             -15.137088               2.000000
 MO|      2              -0.517078             -14.070398               2.000000
[...]
 MO|      3              -0.431524             -11.742354               2.000000
 MO|      4              -0.358704              -9.760844               2.000000
 MO|      5              -0.313353              -8.526768               2.000000
 MO|      6              -0.313353              -8.526767               2.000000
 MO|      7              -0.313353              -8.526765               2.000000
 MO|      8              -0.309718              -8.427852               2.000000
 MO|      9              -0.309718              -8.427850               2.000000
 MO|     10              -0.309718              -8.427848               2.000000
 MO|     11              -0.273746              -7.449010               2.000000
 MO|     12              -0.273746              -7.449008               2.000000
 MO|     13              -0.273746              -7.449006               2.000000
 MO|     14              -0.272866              -7.425050               2.000000
 MO|     15              -0.272865              -7.425045               2.000000
 MO|     16              -0.272865              -7.425043               2.000000
 MO|     17              -0.265515              -7.225024               2.000000
 MO|     18              -0.222426              -6.052518               2.000000
 MO|     19              -0.222426              -6.052518               2.000000
 MO|     20              -0.222426              -6.052514               2.000000
 MO|     21              -0.200859              -5.465661               2.000000
 MO|     22              -0.200859              -5.465659               2.000000
 MO|     23              -0.200859              -5.465657               2.000000
 MO|     24              -0.159347              -4.336062               1.999759
 MO|     25              -0.141158              -3.841103               0.000080
 MO|     26              -0.141158              -3.841101               0.000080
 MO|     27              -0.141158              -3.841100               0.000080
 MO|     28              -0.134106              -3.649201               0.000000
 MO|     29              -0.134106              -3.649200               0.000000
 MO|     30              -0.134106              -3.649199               0.000000
 MO|     31              -0.057788              -1.572488               0.000000
 MO|     32              -0.057010              -1.551311               0.000000
 MO|     33              -0.057010              -1.551310               0.000000
 MO|     34              -0.057010              -1.551309               0.000000
 MO|     35              -0.043628              -1.187180               0.000000
 MO|     36              -0.043628              -1.187179               0.000000
 MO|     37              -0.043628              -1.187178               0.000000
 MO|     38               0.045829               1.247059               0.000000
 MO|     39               0.046915               1.276615               0.000000
 MO|     40               0.046915               1.276615               0.000000
 MO|     41               0.046915               1.276617               0.000000
 MO|     42               0.077988               2.122165               0.000000
 MO|     43               0.077988               2.122173               0.000000
 MO|     44               0.077988               2.122174               0.000000
 MO| Sum:                                                              48.000000
 MO| E(Fermi):           -0.150775 a.u.         -4.102791 eV

   202 Broy./Diag. 0.10E+00    0.4     0.00005090       -33.3276713455 -8.92E-07

 *** WARNING in fm/cp_fm_elpa.F:522 :: Setting real_kernel for ELPA failed ***


 MO| EIGENVALUES AND OCCUPATION NUMBERS AFTER SCF STEP 202
 MO|
 MO|  Index      Eigenvalue [a.u.]        Eigenvalue [eV]             Occupation
 MO|      1              -0.530844             -14.445011               2.000000
 MO|      2              -0.491327             -13.369675               2.000000
 MO|      3              -0.431523             -11.742342               2.000000
 MO|      4              -0.358704              -9.760833               2.000000
 MO|      5              -0.313353              -8.526757               2.000000
 MO|      6              -0.313353              -8.526755               2.000000
 MO|      7              -0.313352              -8.526753               2.000000
 MO|      8              -0.309717              -8.427840               2.000000
 MO|      9              -0.309717              -8.427838               2.000000
 MO|     10              -0.309717              -8.427836               2.000000
 MO|     11              -0.273746              -7.448999               2.000000
 MO|     12              -0.273746              -7.448997               2.000000
 MO|     13              -0.273746              -7.448995               2.000000
 MO|     14              -0.272865              -7.425038               2.000000
 MO|     15              -0.272865              -7.425034               2.000000
 MO|     16              -0.272865              -7.425032               2.000000
 MO|     17              -0.265514              -7.225012               2.000000
 MO|     18              -0.222426              -6.052507               2.000000
 MO|     19              -0.222426              -6.052506               2.000000
 MO|     20              -0.222425              -6.052503               2.000000
 MO|     21              -0.200859              -5.465649               2.000000
 MO|     22              -0.200859              -5.465648               2.000000
 MO|     23              -0.200859              -5.465646               2.000000
 MO|     24              -0.159347              -4.336051               1.999759
 MO|     25              -0.141158              -3.841091               0.000080
 MO|     26              -0.141157              -3.841090               0.000080
 MO|     27              -0.141157              -3.841089               0.000080
 MO|     28              -0.134105              -3.649189               0.000000
 MO|     29              -0.134105              -3.649188               0.000000
 MO|     30              -0.134105              -3.649187               0.000000
 MO|     31              -0.057787              -1.572477               0.000000
 MO|     32              -0.057009              -1.551299               0.000000
 MO|     33              -0.057009              -1.551298               0.000000
 MO|     34              -0.057009              -1.551297               0.000000
 MO|     35              -0.043628              -1.187169               0.000000
 MO|     36              -0.043628              -1.187168               0.000000
 MO|     37              -0.043628              -1.187166               0.000000
 MO|     38               0.045829               1.247070               0.000000
 MO|     39               0.046915               1.276626               0.000000
 MO|     40               0.046915               1.276627               0.000000
 MO|     41               0.046915               1.276629               0.000000
 MO|     42               0.077989               2.122176               0.000000
 MO|     43               0.077989               2.122185               0.000000
 MO|     44               0.077989               2.122185               0.000000
 MO| Sum:                                                              48.000000
 MO| E(Fermi):           -0.150774 a.u.         -4.102780 eV

   203 Broy./Diag. 0.10E+00    0.4     0.00000088       -33.3276734604 -2.11E-06

  *** SCF run converged in   203 steps ***


  Electronic density on regular grids:        -47.9999999999        0.0000000001
  Core density on regular grids:               47.9999999873       -0.0000000127
  Total dipole moment perpendicular to 
  the slab [electrons-Angstroem]:               0.0004516924
  Total charge density on r-space grids:       -0.0000000126
  Total charge density g-space grids:          -0.0000000126

  Overlap energy of the core charge distribution:               0.00000000000001
  Self energy of the core charge distribution:                -90.27033336764102
  Core Hamiltonian energy:                                     18.45411053893535
  Hartree energy:                                              51.12693179295699
  Exchange-correlation energy:                                -12.62323187903732
  Dispersion energy:                                           -0.01514570092428
  Electronic entropic energy:                                  -0.00000484465013
  Fermi energy:                                                -0.15077439755786

  Total energy:                                               -33.32767346037777

  outer SCF iter =    1 RMS gradient =   0.88E-06 energy =        -33.3276734604
  outer SCF loop converged in   1 iterations or  203 steps



 COPIED mos ---> mos_last_converged

 MO| EIGENVALUES AND OCCUPATION NUMBERS
 MO|
 MO|  Index      Eigenvalue [a.u.]        Eigenvalue [eV]             Occupation
 MO|      1              -0.530844             -14.445011               2.000000
 MO|      2              -0.491327             -13.369675               2.000000
 MO|      3              -0.431523             -11.742342               2.000000
 MO|      4              -0.358704              -9.760833               2.000000
 MO|      5              -0.313353              -8.526757               2.000000
 MO|      6              -0.313353              -8.526755               2.000000
 MO|      7              -0.313352              -8.526753               2.000000
 MO|      8              -0.309717              -8.427840               2.000000
 MO|      9              -0.309717              -8.427838               2.000000
 MO|     10              -0.309717              -8.427836               2.000000
 MO|     11              -0.273746              -7.448999               2.000000
 MO|     12              -0.273746              -7.448997               2.000000
 MO|     13              -0.273746              -7.448995               2.000000
 MO|     14              -0.272865              -7.425038               2.000000
 MO|     15              -0.272865              -7.425034               2.000000
 MO|     16              -0.272865              -7.425032               2.000000
 MO|     17              -0.265514              -7.225012               2.000000
 MO|     18              -0.222426              -6.052507               2.000000
 MO|     19              -0.222426              -6.052506               2.000000
 MO|     20              -0.222425              -6.052503               2.000000
 MO|     21              -0.200859              -5.465649               2.000000
 MO|     22              -0.200859              -5.465648               2.000000
 MO|     23              -0.200859              -5.465646               2.000000
 MO|     24              -0.159347              -4.336051               1.999759
 MO|     25              -0.141158              -3.841091               0.000080
 MO|     26              -0.141157              -3.841090               0.000080
 MO|     27              -0.141157              -3.841089               0.000080
 MO|     28              -0.134105              -3.649189               0.000000
 MO|     29              -0.134105              -3.649188               0.000000
 MO|     30              -0.134105              -3.649187               0.000000
 MO|     31              -0.057787              -1.572477               0.000000
 MO|     32              -0.057009              -1.551299               0.000000
 MO|     33              -0.057009              -1.551298               0.000000
 MO|     34              -0.057009              -1.551297               0.000000
 MO|     35              -0.043628              -1.187169               0.000000
 MO|     36              -0.043628              -1.187168               0.000000
 MO|     37              -0.043628              -1.187166               0.000000
 MO|     38               0.045829               1.247070               0.000000
 MO|     39               0.046915               1.276626               0.000000
 MO|     40               0.046915               1.276627               0.000000
 MO|     41               0.046915               1.276629               0.000000
 MO|     42               0.077989               2.122176               0.000000
 MO|     43               0.077989               2.122185               0.000000
 MO|     44               0.077989               2.122185               0.000000
 MO| Sum:                                                              48.000000
 MO| E(Fermi):           -0.150774 a.u.         -4.102780 eV


 !-----------------------------------------------------------------------------!
                     Mulliken Population Analysis

 #  Atom  Element  Kind  Atomic population                           Net charge
       1     Al       1          2.886975                              0.113025
       2     Al       1          2.886976                              0.113024
       3     Al       1          2.886975                              0.113025
       4     Al       1          2.886976                              0.113024
       5     Al       1          3.113462                             -0.113462
       6     Al       1          3.113461                             -0.113461
       7     Al       1          3.113462                             -0.113462
       8     Al       1          3.113461                             -0.113461
       9     Al       1          3.112628                             -0.112628
      10     Al       1          3.112627                             -0.112627
      11     Al       1          3.112631                             -0.112631
      12     Al       1          3.112628                             -0.112628
      13     Al       1          2.886935                              0.113065
      14     Al       1          2.886933                              0.113067
      15     Al       1          2.886936                              0.113064
      16     Al       1          2.886934                              0.113066
 # Total charge                             48.000000                 -0.000000

 !-----------------------------------------------------------------------------!

 !-----------------------------------------------------------------------------!
                           Hirshfeld Charges

  #Atom  Element  Kind  Ref Charge     Population                    Net charge
      1       Al     1       3.000          3.043                        -0.043
      2       Al     1       3.000          3.043                        -0.043
      3       Al     1       3.000          3.043                        -0.043
      4       Al     1       3.000          3.043                        -0.043
      5       Al     1       3.000          2.957                         0.043
      6       Al     1       3.000          2.957                         0.043
      7       Al     1       3.000          2.957                         0.043
      8       Al     1       3.000          2.957                         0.043
      9       Al     1       3.000          2.957                         0.043
     10       Al     1       3.000          2.957                         0.043
     11       Al     1       3.000          2.957                         0.043
     12       Al     1       3.000          2.957                         0.043
     13       Al     1       3.000          3.043                        -0.043
     14       Al     1       3.000          3.043                        -0.043
     15       Al     1       3.000          3.043                        -0.043
     16       Al     1       3.000          3.043                        -0.043

  Total Charge                                                            0.001
 !-----------------------------------------------------------------------------!

 !-----------------------------------------------------------------------------!
                         Generate Active Space Hamiltonian
                          Interface to CAS-CI and DMRG-CI
 !-----------------------------------------------------------------------------!
  Hartree-Fock model for interaction Hamiltonian
  Total number of electrons                                                  48
  Number of inactive electrons                                               46
  Number of active electrons                                                  2

  Active space orbitals selected manually
  Number of inactive orbitals                                                23
  Number of active orbitals                                                   5

  Calculating virtual MOs...
 OT| Eigensolver reached convergence in 1 iterations

 *** WARNING in fm/cp_fm_elpa.F:522 :: Setting real_kernel for ELPA failed ***


  Orbital Energies and Selection for spin  1                     [atomic units]
        -0.530844  [I]     -0.491327  [I]     -0.431523  [I]     -0.358704  [I]
        -0.313353  [I]     -0.313353  [I]     -0.313352  [I]     -0.309717  [I]
        -0.309717  [I]     -0.309717  [I]     -0.273746  [I]     -0.273746  [I]
        -0.273746  [I]     -0.272865  [I]     -0.272865  [I]     -0.272865  [I]
        -0.265514  [I]     -0.222426  [I]     -0.222426  [I]     -0.222425  [I]
        -0.200859  [I]     -0.200859  [I]     -0.200859  [I]     -0.159347  [A]
        -0.141158  [A]     -0.141157  [A]     -0.141157  [A]     -0.134105  [A]

  Active Orbital Indices for spin  1
    24  25  26  27
    28

  Calculation of Electron Repulsion Integrals
  Integration method                             GPW Fourier transform over MOs
  ERI operator                                      Error function <ERF(a*R)/R>
  ERI operator parameter                                                  0.500
  Accuracy of ERI                                                    0.1000E-11
  Periodicity                                                           1  1  1
  Total Number of ERI                                                        78

 ERI_GPW| Energy cutoff [Ry]                                               600.0
 ERI_GPW| Relative energy cutoff [Ry]                                       60.0

 ERI_GPW| Switching Poisson solver to                                   PERIODIC
 ERI_GPW| Poisson Greens function                                       PERIODIC

 -------------------------------------------------------------------------------
 ----                             MULTIGRID INFO                            ----
 -------------------------------------------------------------------------------
 count for grid        1:              0          cutoff [a.u.]          300.00
 count for grid        2:          15680          cutoff [a.u.]          100.00
 count for grid        3:          13680          cutoff [a.u.]           33.33
 count for grid        4:           7680          cutoff [a.u.]           11.11
 count for grid        5:           1680          cutoff [a.u.]            3.70
 total gridlevel count  :          38720

 ERI_GPW| Spinmatrix: 1      Number of  CSR non-zero elements:              120
 ERI_GPW| Spinmatrix: 1      Percentage CSR non-zero elements:           0.0728
 ERI_GPW| Spinmatrix: 1      nrows_total                                    406
 ERI_GPW| Spinmatrix: 1      ncols_total                                    406
 ERI_GPW| Spinmatrix: 1      nrows_local                                      0

  @SERVER: Created socket with address embedding_socket
  @SERVER: Waiting for requests...
  @SERVER: Accepted socket with fd 26

  Iter    Update    Time         Corr. energy         Total energy        Change
  ------------------------------------------------------------------------------
