&FCI NORB=   5,NELEC=   2,MS2= 1,
  ORBSYM=1,1,1,1,1,
  ISYM=0,
 /
 5.5419119242410671E-02   1   1   1   1
 2.8190843377611007E-05   1   1   1   2
 1.4291631846138846E-04   1   1   1   3
 6.6281200900316163E-06   1   1   1   4
 3.1010760865215724E-05   1   1   1   5
 5.1458064219840574E-02   1   1   2   2
 8.5417537298462597E-05   1   1   2   3
 3.9950174141292755E-04   1   1   2   4
 3.6396159994774369E-05   1   1   2   5
 5.1335053853032442E-02   1   1   3   3
 7.0609779779203137E-05   1   1   3   4
-3.2197957138880358E-04   1   1   3   5
 4.9077338270971910E-02   1   1   4   4
 3.4943743127066184E-05   1   1   4   5
 4.9918688655321834E-02   1   1   5   5
 1.7624174912386312E-03   1   2   1   2
 1.6154470857272201E-05   1   2   1   3
-1.4876723245462768E-04   1   2   1   4
-1.0653052416060361E-05   1   2   1   5
 3.8041097310017495E-04   1   2   2   2
-3.2145967606678259E-04   1   2   2   3
-3.1274796145074670E-05   1   2   2   4
-2.1546072507098158E-05   1   2   2   5
-1.5919156134199409E-04   1   2   3   3
-1.1139707349841877E-05   1   2   3   4
 7.8020426119298580E-05   1   2   3   5
-2.4995335789905606E-05   1   2   4   4
-1.4272835977641513E-04   1   2   4   5
 2.4474816395254060E-04   1   2   5   5
 1.7611951662452607E-03   1   3   1   3
 3.7683489232614928E-05   1   3   1   4
 1.1378967630471533E-04   1   3   1   5
-4.1930053970561657E-04   1   3   2   2
-7.8284394265867239E-05   1   3   2   3
-2.9447947150918267E-05   1   3   2   4
-8.6177115240296064E-05   1   3   2   5
 2.9082793990729984E-04   1   3   3   3
 1.8795060511865252E-05   1   3   3   4
 7.1586839246983976E-05   1   3   3   5
 2.5430946124155040E-05   1   3   4   4
 1.9420512611950500E-04   1   3   4   5
-7.0672693684048846E-05   1   3   5   5
 1.1281185485663894E-03   1   4   1   4
 4.9773197597460881E-04   1   4   1   5
-9.4155112797517863E-05   1   4   2   2
 4.0818367299110968E-08   1   4   2   3
 1.9631182620505410E-05   1   4   2   4
-1.1585172638930084E-04   1   4   2   5
 4.2789015222692173E-05   1   4   3   3
 1.5817129187386775E-05   1   4   3   4
-1.1525980514128841E-04   1   4   3   5
-5.1504146686567468E-05   1   4   4   4
-1.6663512004461922E-05   1   4   4   5
 1.7073103338371555E-04   1   4   5   5
 4.8983637388479084E-03   1   5   1   5
-1.6130170034389147E-04   1   5   2   2
-1.0087330072689545E-04   1   5   2   3
 3.3047590346247827E-04   1   5   2   4
 1.6413718505020808E-04   1   5   2   5
-4.2645044574640180E-04   1   5   3   3
-7.3767702548545734E-06   1   5   3   4
-6.7163894584602120E-04   1   5   3   5
-1.3008866579861193E-04   1   5   4   4
-3.3649259301042595E-05   1   5   4   5
 1.1001077594671933E-04   1   5   5   5
 5.4610272443813376E-02   2   2   2   2
 2.7014787485518449E-04   2   2   2   3
-9.5887632966957072E-05   2   2   2   4
-2.6724424203928573E-05   2   2   2   5
 5.1184158056455195E-02   2   2   3   3
 3.9033744000699133E-05   2   2   3   4
 1.1331664417227443E-04   2   2   3   5
 4.9617827707373788E-02   2   2   4   4
 5.6873785644884851E-05   2   2   4   5
 4.9780438744831117E-02   2   2   5   5
 1.8447654445018465E-03   2   3   2   3
-1.4740217220945645E-05   2   3   2   4
 2.5231728884664389E-05   2   3   2   5
-1.0000195917121165E-04   2   3   3   3
-1.9937581128364602E-05   2   3   3   4
 8.8800405503769411E-06   2   3   3   5
-4.9026363419551195E-05   2   3   4   4
 6.3867329122905081E-05   2   3   4   5
-5.0596744443699727E-05   2   3   5   5
 1.7473112504762874E-03   2   4   2   4
 2.4020861975445324E-04   2   4   2   5
-2.1206564519447708E-05   2   4   3   3
 3.8934842547500969E-05   2   4   3   4
-4.9823560436082080E-04   2   4   3   5
 1.3472223835797866E-04   2   4   4   4
-3.9167346530539005E-06   2   4   4   5
-5.6327055071188472E-05   2   4   5   5
 1.1070144692484542E-03   2   5   2   5
 3.7676346755423667E-05   2   5   3   3
-7.5306125746435454E-05   2   5   3   4
-1.3902355345384287E-04   2   5   3   5
-1.7386573086133191E-05   2   5   4   4
 2.7876210062624964E-05   2   5   4   5
 1.0813841143716053E-05   2   5   5   5
 5.4134002109641671E-02   3   3   3   3
 2.7885861767174718E-05   3   3   3   4
 1.2916276168101518E-04   3   3   3   5
 4.9576624643293765E-02   3   3   4   4
-5.9104210301331615E-05   3   3   4   5
 4.9501602953274944E-02   3   3   5   5
 1.1090735845765668E-03   3   4   3   4
-8.0661907632409964E-05   3   4   3   5
 4.3472265072818018E-05   3   4   4   4
 5.1103665531484945E-06   3   4   4   5
 3.2851331858331438E-05   3   4   5   5
 1.7104123588857008E-03   3   5   3   5
-3.8093329148282105E-05   3   5   4   4
-2.4775545217615177E-06   3   5   4   5
-1.8528628311521114E-05   3   5   5   5
 5.1234418392414230E-02   4   4   4   4
-1.9777433053728229E-04   4   4   4   5
 4.8218881398642520E-02   4   4   5   5
 1.6665592883128996E-03   4   5   4   5
-8.1768756398982369E-05   4   5   5   5
 5.1715516277087842E-02   5   5   5   5
-3.7828274564413171E-02   1   1   0   0
 1.7923889700834630E-03   1   2   0   0
-6.1368261147680646E-03   1   3   0   0
-2.7471962460358890E-05   1   4   0   0
-3.9950475723139040E-04   1   5   0   0
-8.6382876515394599E-02   2   2   0   0
-7.9716350936794651E-04   2   3   0   0
-5.9547859996451923E-04   2   4   0   0
-1.2853627955960905E-04   2   5   0   0
-8.4920893677988413E-02   3   3   0   0
-7.5557224291201302E-05   3   4   0   0
 5.1092768153962356E-04   3   5   0   0
-6.2979736742170153E-02   4   4   0   0
 3.3915250533319034E-04   4   5   0   0
-5.9667732765997558E-02   5   5   0   0
-2.4135808581054303E+02   0   0   0   0
