&FCI NORB=   5,NELEC=   2,MS2= 1,
  ORBSYM=1,1,1,1,1,
  ISYM=0,
 /
 7.9461823824701155E-02   1   1   1   1
-5.0410073980324661E-05   1   1   1   2
 2.2261112174411755E-04   1   1   1   3
 7.2875494007933878E-04   1   1   1   4
-4.6847599030378997E-04   1   1   1   5
 7.5822078670683662E-02   1   1   2   2
-2.3441971148818611E-05   1   1   2   3
-8.0657534720551620E-04   1   1   2   4
 8.9302709434722774E-04   1   1   2   5
 7.4728623517898607E-02   1   1   3   3
 8.8477903514686332E-04   1   1   3   4
 5.6444024093046897E-04   1   1   3   5
 6.9976667042538687E-02   1   1   4   4
 5.6970471208561495E-04   1   1   4   5
 7.0668563397297240E-02   1   1   5   5
 1.5518274521058848E-03   1   2   1   2
 4.6283359559528077E-05   1   2   1   3
-5.3967114716741742E-05   1   2   1   4
 1.0490819423193722E-04   1   2   1   5
-2.6262971059053710E-05   1   2   2   2
-1.4371935932443807E-04   1   2   2   3
-1.4951709712868892E-05   1   2   2   4
-2.2969068386866353E-04   1   2   2   5
 4.6869967975861481E-05   1   2   3   3
-1.1835844775225305E-04   1   2   3   4
-1.5754005695093186E-05   1   2   3   5
 1.3417146587695695E-04   1   2   4   4
 2.0988325171350278E-05   1   2   4   5
 1.1381816961618884E-05   1   2   5   5
 1.5284888586453915E-03   1   3   1   3
 3.3285514952791719E-04   1   3   1   4
-3.2425582444022997E-04   1   3   1   5
 4.6286431257985762E-04   1   3   2   2
-1.1199513029848209E-04   1   3   2   3
-2.5300872207847735E-04   1   3   2   4
 1.6039231469201922E-04   1   3   2   5
-1.1435445601580373E-04   1   3   3   3
 3.9733588909138945E-04   1   3   3   4
 3.4156115688657523E-05   1   3   3   5
-9.0354173030256392E-05   1   3   4   4
-7.6880993373376865E-05   1   3   4   5
 3.4572651254944206E-05   1   3   5   5
 1.4750600099261422E-03   1   4   1   4
-1.3229357901646345E-04   1   4   1   5
 9.7405560860934059E-04   1   4   2   2
-9.5205792685782445E-05   1   4   2   3
-8.6920710278744675E-05   1   4   2   4
 3.7094024729416686E-04   1   4   2   5
 1.6571201719881007E-04   1   4   3   3
 6.5479079106392881E-04   1   4   3   4
 7.6129772055399974E-05   1   4   3   5
-1.4458550552204049E-04   1   4   4   4
 1.3449812358124624E-04   1   4   4   5
 2.8659033560513275E-04   1   4   5   5
 1.5070118365814575E-03   1   5   1   5
-6.9578817159585550E-04   1   5   2   2
 1.7978878454698202E-04   1   5   2   3
 4.2261805303889872E-04   1   5   2   4
-2.6309389923505669E-04   1   5   2   5
 3.3472893348402531E-07   1   5   3   3
-3.6237399478230068E-04   1   5   3   4
-4.0055796000797674E-05   1   5   3   5
 1.4463188392272922E-04   1   5   4   4
-3.0978994061846009E-06   1   5   4   5
-1.3870942721937434E-04   1   5   5   5
 7.8804656668717304E-02   2   2   2   2
-1.5438281878142948E-04   2   2   2   3
-8.0385276856952907E-04   2   2   2   4
 9.7502249003753472E-04   2   2   2   5
 7.4856951744090405E-02   2   2   3   3
 1.0443935843459139E-03   2   2   3   4
 4.4438106164472647E-04   2   2   3   5
 7.0073354484434108E-02   2   2   4   4
 3.8020721091281112E-04   2   2   4   5
 7.0882878589018650E-02   2   2   5   5
 1.4545495739859519E-03   2   3   2   3
 5.4699048747625890E-05   2   3   2   4
 1.0512006459240705E-04   2   3   2   5
 5.7227909976412608E-05   2   3   3   3
-3.2507769960971993E-05   2   3   3   4
 7.0013809692475186E-05   2   3   3   5
 1.1685303242463318E-04   2   3   4   4
 5.8928194687543223E-05   2   3   4   5
 1.1121819332805062E-04   2   3   5   5
 1.3954477076071085E-03   2   4   2   4
-5.1235740626534977E-04   2   4   2   5
-3.6318335998741249E-04   2   4   3   3
-2.6787150369729864E-04   2   4   3   4
-5.2919418863648741E-05   2   4   3   5
-1.1829383493819755E-04   2   4   4   4
-4.9663792828017242E-05   2   4   4   5
-2.1421739968148268E-04   2   4   5   5
 1.8609461109708647E-03   2   5   2   5
 1.8301963387961132E-04   2   5   3   3
 3.4143092897697368E-04   2   5   3   4
 3.1323769906363072E-04   2   5   3   5
-1.0249119454488258E-04   2   5   4   4
 2.1016252373366284E-04   2   5   4   5
 3.8940070483552125E-04   2   5   5   5
 7.7473319885152825E-02   3   3   3   3
 1.2987526462000668E-04   3   3   3   4
 2.5694942979338369E-04   3   3   3   5
 7.0229312236329750E-02   3   3   4   4
 4.3006855651117940E-04   3   3   4   5
 7.0101034566755177E-02   3   3   5   5
 1.7540352386968645E-03   3   4   3   4
 3.1299265746524696E-04   3   4   3   5
 2.8395084356101330E-05   3   4   4   4
 1.3419899693054970E-04   3   4   4   5
 5.9168902408071632E-04   3   4   5   5
 1.2794072790621195E-03   3   5   3   5
-5.2302853321831864E-05   3   5   4   4
 1.5235435174481817E-04   3   5   4   5
 1.6981134149201836E-04   3   5   5   5
 6.9913798528561583E-02   4   4   4   4
 5.9201055389730760E-04   4   4   4   5
 6.7227341342483773E-02   4   4   5   5
 1.2623692506523424E-03   4   5   4   5
 5.7603955432035349E-04   4   5   5   5
 7.0351725318376107E-02   5   5   5   5
-8.1655796899734220E-02   1   1   0   0
-3.1835659218739813E-05   1   2   0   0
-8.4439295560469890E-04   1   3   0   0
-1.1748408312942391E-03   1   4   0   0
 9.3116551839087457E-04   1   5   0   0
-1.5543491410079299E-01   2   2   0   0
 9.8570472824073595E-05   2   3   0   0
 2.0200356955749686E-03   2   4   0   0
-1.7965279909357796E-03   2   5   0   0
-1.5288450320154365E-01   3   3   0   0
-1.7411831288206298E-03   3   4   0   0
-1.7153521050777745E-03   3   5   0   0
-1.3020694146976836E-01   4   4   0   0
-1.1214143907589472E-03   4   5   0   0
-1.3105121224584917E-01   5   5   0   0
-2.4132985686826206E+02   0   0   0   0
