104
 energy: -136.367256128314 gnorm: 0.162438219811 xtb: 6.7.1 (edcfbbe)
Al           1.43189123000000        0.82670279000000       10.00000000000000
Al           4.29567370000000        0.82670279000000       10.00000000000000
Al           7.15945616000000        0.82670279000000       10.00000000000000
Al          10.02323862000000        0.82670279000000       10.00000000000000
Al           2.86378246000000        3.30681115000000       10.00000000000000
Al           5.72756493000000        3.30681115000000       10.00000000000000
Al           8.59134739000000        3.30681115000000       10.00000000000000
Al          11.45512986000000        3.30681115000000       10.00000000000000
Al           4.29567370000000        5.78691952000000       10.00000000000000
Al           7.15945616000000        5.78691952000000       10.00000000000000
Al          10.02323862000000        5.78691952000000       10.00000000000000
Al          12.88702109000000        5.78691952000000       10.00000000000000
Al           5.72756493000000        8.26702788000000       10.00000000000000
Al           8.59134739000000        8.26702788000000       10.00000000000000
Al          11.45512986000000        8.26702788000000       10.00000000000000
Al          14.31891232000000        8.26702788000000       10.00000000000000
Al           0.00000000000000        1.65340558000000       12.33826859000000
Al           2.86378246000000        1.65340558000000       12.33826859000000
Al           5.72756493000000        1.65340558000000       12.33826859000000
Al           8.59134739000000        1.65340558000000       12.33826859000000
Al           1.43189123000000        4.13351394000000       12.33826859000000
Al           4.29567370000000        4.13351394000000       12.33826859000000
Al           7.15945616000000        4.13351394000000       12.33826859000000
Al          10.02323862000000        4.13351394000000       12.33826859000000
Al           2.86378246000000        6.61362231000000       12.33826859000000
Al           5.72756493000000        6.61362231000000       12.33826859000000
Al           8.59134739000000        6.61362231000000       12.33826859000000
Al          11.45512986000000        6.61362231000000       12.33826859000000
Al           4.29567370000000        9.09373067000000       12.33826859000000
Al           7.15945616000000        9.09373067000000       12.33826859000000
Al          10.02323862000000        9.09373067000000       12.33826859000000
Al          12.88702109000000        9.09373067000000       12.33826859000000
Al           0.00000000000000        0.00000000000000       14.67653718000000
Al           2.86378246000000        0.00000000000000       14.67653718000000
Al           5.72756493000000        0.00000000000000       14.67653718000000
Al           8.59134739000000        0.00000000000000       14.67653718000000
Al           1.43189123000000        2.48010836000000       14.67653718000000
Al           4.29567370000000        2.48010836000000       14.67653718000000
Al           7.15945616000000        2.48010836000000       14.67653718000000
Al          10.02323862000000        2.48010836000000       14.67653718000000
Al           2.86378246000000        4.96021673000000       14.67653718000000
Al           5.72756493000000        4.96021673000000       14.67653718000000
Al           8.59134739000000        4.96021673000000       14.67653718000000
Al          11.45512986000000        4.96021673000000       14.67653718000000
Al           4.29567370000000        7.44032509000000       14.67653718000000
Al           7.15945616000000        7.44032509000000       14.67653718000000
Al          10.02323862000000        7.44032509000000       14.67653718000000
Al          12.88702109000000        7.44032509000000       14.67653718000000
Al           1.43189123000000        0.82670279000000       17.01480577000000
Al           4.29567370000000        0.82670279000000       17.01480577000000
Al           7.15945616000000        0.82670279000000       17.01480577000000
Al          10.02323862000000        0.82670279000000       17.01480577000000
Al           2.86378246000000        3.30681115000000       17.01480577000000
Al           5.72756493000000        3.30681115000000       17.01480577000000
Al           8.59134739000000        3.30681115000000       17.01480577000000
Al          11.45512986000000        3.30681115000000       17.01480577000000
Al           4.29567370000000        5.78691952000000       17.01480577000000
Al           7.15945616000000        5.78691952000000       17.01480577000000
Al          10.02323862000000        5.78691952000000       17.01480577000000
Al          12.88702109000000        5.78691952000000       17.01480577000000
Al           5.72756493000000        8.26702788000000       17.01480577000000
Al           8.59134739000000        8.26702788000000       17.01480577000000
Al          11.45512986000000        8.26702788000000       17.01480577000000
Al          14.31891232000000        8.26702788000000       17.01480577000000
Al           0.00000000000000        1.65340558000000       19.35307436000000
Al           2.86378246000000        1.65340558000000       19.35307436000000
Al           5.72756493000000        1.65340558000000       19.35307436000000
Al           8.59134739000000        1.65340558000000       19.35307436000000
Al           1.43189123000000        4.13351394000000       19.35307436000000
Al           4.29567370000000        4.13351394000000       19.35307436000000
Al           7.15945616000000        4.13351394000000       19.35307436000000
Al          10.02323862000000        4.13351394000000       19.35307436000000
Al           2.86378246000000        6.61362231000000       19.35307436000000
Al           5.72756493000000        6.61362231000000       19.35307436000000
Al           8.59134739000000        6.61362231000000       19.35307436000000
Al          11.45512986000000        6.61362231000000       19.35307436000000
Al           4.29567370000000        9.09373067000000       19.35307436000000
Al           7.15945616000000        9.09373067000000       19.35307436000000
Al          10.02323862000000        9.09373067000000       19.35307436000000
Al          12.88702109000000        9.09373067000000       19.35307436000000
Al           0.00000000000000        0.00000000000000       21.69134295000000
Al           2.86378246000000        0.00000000000000       21.69134295000000
Al           5.72756493000000        0.00000000000000       21.69134295000000
Al           8.59134739000000        0.00000000000000       21.69134295000000
Al           1.43189123000000        2.48010836000000       21.69134295000000
Al           4.29567370000000        2.48010836000000       21.69134295000000
Al           7.15945616000000        2.48010836000000       21.69134295000000
Al          10.02323862000000        2.48010836000000       21.69134295000000
Al           2.86378246000000        4.96021673000000       21.69134295000000
Al           5.72756493000000        4.96021673000000       21.69134295000000
Al           8.59134739000000        4.96021673000000       21.69134295000000
Al          11.45512986000000        4.96021673000000       21.69134295000000
Al           4.29567370000000        7.44032509000000       21.69134295000000
Al           7.15945616000000        7.44032509000000       21.69134295000000
Al          10.02323862000000        7.44032509000000       21.69134295000000
Al          12.88702109000000        7.44032509000000       21.69134295000000
C            6.18528471000000        3.89783549000000       24.73588972000000
N            7.43766041000000        3.40275693000000       24.75856364000000
C            8.19086857000000        4.52116430000000       24.68500445000000
N            7.44437414000000        5.64014582000000       24.62075924000000
N            6.18854383000000        5.23668623000000       24.65343221000000
H            5.29038975000000        3.29126114000000       24.77882429000000
H            9.27248896000000        4.51859450000000       24.67842322000000
H            5.35685060000000        5.86647827000000       24.61984683000000
104
 energy: -136.479302390299 gnorm: 0.118701988377 xtb: 6.7.1 (edcfbbe)
Al           1.42259877675676        0.81826041670085        9.99681563752960
Al           4.29173044709773        0.78151337535454        9.97668545984258
Al           7.16434370191192        0.78575064281409        9.96918901023991
Al          10.03061084705184        0.81230656581114       10.00635005933660
Al           2.83262297326270        3.32339546659785        9.95792553242612
Al           5.72182353605177        3.30691736501987        9.92730305679066
Al           8.59451731839305        3.30662836522326        9.92521881011566
Al          11.47734553612376        3.28444461562688        9.99738930227386
Al           4.26681856010297        5.80618237001960        9.94957635798203
Al           7.15914274350496        5.78647205366025        9.92338254979277
Al          10.03044027558829        5.79222040507561        9.92752809712961
Al          12.92203619446676        5.76734608711422        9.99543086989918
Al           5.71371954020302        8.29645721585881        9.97116646194799
Al           8.58902864943060        8.30118246353937        9.95548625117921
Al          11.45563598549255        8.29916239188243        9.95660813373065
Al          14.30650323267089        8.26127525395543       10.02184378894583
Al          -0.03318580498589        1.63282907522058       12.32466677131328
Al           2.84689796082596        1.60640754758881       12.33378600882273
Al           5.72758624578962        1.59892505983245       12.33280858284814
Al           8.62322220336277        1.59440999630331       12.33273682644381
Al           1.38221390429361        4.15755934585991       12.32212042231903
Al           4.28027764364423        4.13229606565590       12.33000426762733
Al           7.16033766773031        4.12968340126256       12.34004914587157
Al          10.06740709017450        4.11111162688228       12.33690468402344
Al           2.81775900971434        6.64239031485527       12.31756992230635
Al           5.71658675192727        6.62574667293262       12.31928506301029
Al           8.59768124587295        6.61396553690185       12.32676726251532
Al          11.50487645695057        6.59730214061766       12.31899550139075
Al           4.28400813899756        9.12468541313787       12.33955361766520
Al           7.15797130462150        9.15009984319500       12.35632149781552
Al          10.02412370848239        9.15096693420534       12.35885900941337
Al          12.91621013298841        9.10955246984888       12.35237465330787
Al          -0.01043859128187       -0.00624190502846       14.66451953983863
Al           2.86313171926267       -0.06249174615488       14.65972100944622
Al           5.72914184563668       -0.06545392423805       14.66097041608745
Al           8.60341433341715       -0.05137715411764       14.67001660699221
Al           1.38072528253497        2.50065620740108       14.68750526674649
Al           4.28823070407444        2.47839371443884       14.67298633362680
Al           7.16081403325567        2.47295386722388       14.66538308028965
Al          10.07141799017369        2.44960338644851       14.66696404122650
Al           2.81820356684906        4.98581533543766       14.68364621525548
Al           5.72409998028867        4.96096681203977       14.67186162571890
Al           8.59703776618773        4.96142357082292       14.66154784657169
Al          11.50035437363236        4.93572746370137       14.66610819897558
Al           4.26449380093428        7.49939555244221       14.68570927339319
Al           7.15913882915653        7.49469259350057       14.67247198565563
Al          10.02578289199726        7.49620372993748       14.66618291130073
Al          12.94143593716133        7.46758280341048       14.66533266203817
Al           1.38259144251051        0.79928303496824       17.02581580627374
Al           4.29397837769231        0.76539136698465       17.02570060492376
Al           7.16160043407517        0.76756402925123       17.02420292069551
Al          10.04644483596135        0.78619551659487       17.02296827763853
Al           2.81634050653776        3.32981286471518       17.02435611135554
Al           5.72363740906626        3.30647827956835       17.03039282751779
Al           8.60421371395582        3.29770655402772       17.02547904743828
Al          11.50261661534953        3.27763809885957       17.03182385078744
Al           4.24592699727724        5.81518722042876       17.01747424237619
Al           7.15985662150911        5.79211345101115       17.01902574395980
Al          10.03819688203829        5.78532762677681       17.01717777728534
Al          12.94045584299996        5.76015163073897       17.03182508147908
Al           5.70005871855538        8.32654622105190       17.00472384163977
Al           8.59224626280954        8.32987350079955       17.00751011179623
Al          11.46697850236272        8.31917464676576       17.00275547727416
Al          14.33195280918780        8.27611323551151       17.02700749335341
Al          -0.03666246774747        1.63365375685551       19.33865472264161
Al           2.84622210782255        1.61227438615454       19.37209730506224
Al           5.72516355973487        1.60343687939131       19.35718195876002
Al           8.62907874069069        1.59954266237543       19.36241943331789
Al           1.38311048391478        4.15717988791577       19.33156396437911
Al           4.28089762270841        4.13172281149106       19.36314098802343
Al           7.16034556718846        4.13196858323844       19.35245971405344
Al          10.06989816198282        4.10933684333251       19.35932783755977
Al           2.81864901737884        6.64039885263551       19.33352964845030
Al           5.72011795773738        6.62771228597372       19.37068617874059
Al           8.59400201792987        6.61413011170872       19.36126679444214
Al          11.50297517044850        6.59769877794644       19.35793005181635
Al           4.28168906447085        9.12655996489261       19.35003108375656
Al           7.15476700480591        9.15285131115738       19.37211462454395
Al          10.02381895419013        9.15412196427151       19.36874114626787
Al          12.91230553591259        9.10884337922579       19.36638330023086
Al           0.01589297901180        0.01014657568007       21.66991207163091
Al           2.86424117220619       -0.03980368813084       21.69823834531789
Al           5.73200413569822       -0.03512826877148       21.69803188779659
Al           8.58779428411651       -0.01740680923483       21.69184344240458
Al           1.40550387845599        2.49373825747176       21.73680928172831
Al           4.29343267812904        2.47600795167477       21.76672730040120
Al           7.16376125133369        2.47681347528464       21.77171491775524
Al          10.05428400608914        2.45774444325504       21.72160016083392
Al           2.84724136252942        4.98019776199663       21.74112173221854
Al           5.72585066913848        4.95874666810191       21.73815820016067
Al           8.60165847132259        4.96767832725183       21.75292167560932
Al          11.48963413893345        4.94210377009006       21.72241038837014
Al           4.28695148897961        7.47260493772289       21.73233954210729
Al           7.16085733893936        7.47229687337748       21.74925241407787
Al          10.02799662759051        7.47574435678921       21.73597871407561
Al          12.90206030844230        7.45173503899202       21.69808076012084
C            6.17168252977931        3.87852213365542       24.73505302829053
N            7.43528276382268        3.39639531829451       24.74352538397714
C            8.19260488037610        4.52557110047404       24.67615950247278
N            7.46037349074528        5.66731709825645       24.60838747320127
N            6.18165755210540        5.23665396103200       24.65482846182535
H            5.27061636747040        3.27576662094611       24.78558109987828
H            9.28201149653846        4.52154999461372       24.68607931383784
H            5.36724782540780        5.86771239873592       24.62305250504759
104
 energy: -136.571285072870 gnorm: 0.091552285717 xtb: 6.7.1 (edcfbbe)
Al           1.40678583849586        0.81373159470134        9.98816847748650
Al           4.29103388936942        0.74261471241924        9.94087733766834
Al           7.16350721959820        0.74348896693478        9.93076068328936
Al          10.05204751344318        0.80196916813456        9.98771954986775
Al           2.80200569863621        3.34276620145269        9.91299280824395
Al           5.71696485610872        3.30213196851415        9.88718027317320
Al           8.59346100329733        3.30404938206639        9.88232356554940
Al          11.51837352693920        3.26556878546712        9.97586812559405
Al           4.23207107609634        5.83120614759203        9.89881003736636
Al           7.15936143498027        5.79072931812813        9.87441225509336
Al          10.03154937700118        5.79425437202359        9.88263377314785
Al          12.95938645064866        5.74893200509201        9.98040638046772
Al           5.69744462231013        8.32385003273329        9.92856323957422
Al           8.58899780809803        8.33282489533572        9.90993413242518
Al          11.45457835294829        8.32940932962867        9.91606728105284
Al          14.29409842725533        8.25800923352232       10.01276304154187
Al          -0.05794574389854        1.60989259611625       12.31339668485828
Al           2.84759030644550        1.56229128362670       12.33170589379707
Al           5.72773584314337        1.54612888880184       12.32343246774679
Al           8.65562837056656        1.53948527136016       12.32984844561942
Al           1.33109562160684        4.17979899094687       12.29824930101864
Al           4.27716344962906        4.12428516480924       12.31649942192259
Al           7.16276491658836        4.12276769439001       12.31209888129872
Al          10.11033506766764        4.08127336562937       12.32385437845376
Al           2.76912199759106        6.67508838280852       12.28979997205937
Al           5.71321135230995        6.63578451267973       12.30821508309164
Al           8.60796384905232        6.62363380286950       12.30279015020411
Al          11.52962729001867        6.57889883507135       12.31944081903604
Al           4.26245492618429        9.15880474762795       12.33475078208250
Al           7.15727263033449        9.21257803891106       12.37087093954226
Al          10.03222360285923        9.20535707110605       12.36524180807645
Al          12.95039379081325        9.12958472080886       12.35468515040215
Al          -0.03226426559026       -0.01446910933586       14.66187461344339
Al           2.86232336331232       -0.11774959706431       14.63070587748108
Al           5.72933237246527       -0.12996132499455       14.63129685573747
Al           8.63412072660002       -0.10036159256626       14.65241670918493
Al           1.34110962860205        2.52645634423892       14.69310209564611
Al           4.27763956701429        2.46616671513474       14.67572852570114
Al           7.16818504492770        2.45667835201261       14.68051216580899
Al          10.11972841602754        2.41436563312483       14.64992222228150
Al           2.75624583613551        5.02010458972394       14.69248562477857
Al           5.71548985809030        4.97382191843031       14.66418324925591
Al           8.60848984603804        4.96788764789744       14.66761925500309
Al          11.56161095845338        4.91920017978531       14.64201133013681
Al           4.22685486336381        7.55916058284879       14.69863940191648
Al           7.15117414654148        7.55102611570088       14.66445869576333
Al          10.03712419234497        7.54414926923918       14.67195076508570
Al          12.98734584357896        7.49575680171933       14.64441466804818
Al           1.33343595517168        0.76896560749040       17.04683210620386
Al           4.27873917584944        0.71349296969780       17.04988563436235
Al           7.16605919662367        0.71122080259957       17.04164496518984
Al          10.08703179256760        0.73762380983101       17.03883967909097
Al           2.76802015368459        3.34557968257900       17.01782592303643
Al           5.71315848214909        3.29497608208028       17.02762712825005
Al           8.60573485339162        3.28777112653935       17.01249119208499
Al          11.56739722913146        3.23881073630754       17.05974890347567
Al           4.20422574397899        5.85138450065961       17.02479412295308
Al           7.15629858911276        5.80465646459646       17.02826823663331
Al          10.04237616610735        5.79864469677038       17.01514826831717
Al          12.99147816167138        5.72923470313326       17.06056257314324
Al           5.66076664538318        8.38591598706124       16.99153972769727
Al           8.59539615949102        8.38902261347092       16.99853950439099
Al          11.45986224201283        8.36748065994576       16.99799568044787
Al          14.34855516962005        8.28820915370869       17.02960794826995
Al          -0.06420778628505        1.61642730556017       19.33603185301469
Al           2.85681502748392        1.57198298036970       19.37269600750001
Al           5.72851425228525        1.55418701544667       19.37064815245698
Al           8.65765895855944        1.54260728502800       19.36428988288365
Al           1.32893002934486        4.18122280141664       19.32720675802289
Al           4.27828242748869        4.12068705765513       19.38801214582130
Al           7.16617668197671        4.12183833819930       19.38751832995462
Al          10.11703636659096        4.07755909044840       19.37100753087948
Al           2.76411733423545        6.67569372826201       19.32386588993647
Al           5.71651742597650        6.64135802098102       19.37981334135145
Al           8.60789788419187        6.62817464185228       19.37481728114292
Al          11.54045438820069        6.58115863362676       19.36297653966518
Al           4.25828828799519        9.15502222388554       19.35894412435812
Al           7.15508430958494        9.20620777155079       19.40466339899336
Al          10.03172402265084        9.20238065767141       19.39434575291308
Al          12.95271457035315        9.12169371220500       19.37798781885589
Al           0.01987903783684        0.01683427568747       21.67884238853396
Al           2.86127428391892       -0.08103931777405       21.71070238026643
Al           5.73087622303989       -0.07449226121804       21.71347504083107
Al           8.59533915875426       -0.03494004215182       21.70288439068144
Al           1.37943310498128        2.51338909357216       21.77588730140006
Al           4.28413393740890        2.47232431244702       21.80758137931586
Al           7.17126548829401        2.47437274348284       21.84327061973890
Al          10.09256026251104        2.43341087700321       21.75633859418202
Al           2.80823489754235        4.99691554178214       21.78230845441630
Al           5.71990022549350        4.96975446598185       21.79402770487324
Al           8.60302863261661        4.97261877252621       21.81280075395917
Al          11.52901824101034        4.92161325158733       21.75083816308261
Al           4.26327958148556        7.49617551318454       21.76425004154148
Al           7.15887163618254        7.51040602316482       21.80526140436194
Al          10.02337790459840        7.51294217169999       21.77475613730335
Al          12.91093853605121        7.45619023169399       21.70326221876394
C            6.15902078269517        3.85723327947126       24.73051028480363
N            7.43546667713881        3.38953492032724       24.72308287715887
C            8.19432584096405        4.52841906683757       24.65929432813489
N            7.47602455637334        5.69457410436371       24.59106779317854
N            6.17119280350676        5.23503255847074       24.65444674357616
H            5.25074576384128        3.26198842823249       24.79395518171043
H            9.29095150514294        4.52370500157083       24.69560519300274
H            5.37749886798806        5.87241896022157       24.62889622786143
104
 energy: -136.647092046623 gnorm: 0.077865400279 xtb: 6.7.1 (edcfbbe)
Al           1.39526821330119        0.81070588605430        9.98047680449536
Al           4.28742133745394        0.70553060922062        9.90794314286444
Al           7.16574483047107        0.70478427454580        9.89460125897267
Al          10.06841175700538        0.79146462430246        9.97506018540377
Al           2.77110581207196        3.35983955276685        9.87408236481185
Al           5.70501022411825        3.29616008521872        9.83434106090955
Al           8.59617188830197        3.29795104928929        9.82685393263245
Al          11.55263091501542        3.24634540035838        9.95992345591633
Al           4.19984255898855        5.85663783127584        9.85130233595383
Al           7.15298093393916        5.79948258695174        9.81177753372360
Al          10.04104315139621        5.79890711036872        9.82639080081869
Al          12.99214603157415        5.72988630383392        9.97131381189867
Al           5.68483082280710        8.35055598610603        9.89774482026946
Al           8.58350137301613        8.36766749987554        9.86963401268805
Al          11.44879595858563        8.35784975274406        9.87960129617886
Al          14.28020479782472        8.25353999803300       10.01291383136953
Al          -0.08237389381153        1.58780707269556       12.30077431267211
Al           2.83870021544516        1.51995638465062       12.32629738802868
Al           5.73496015979818        1.49095978870270       12.31206594596084
Al           8.68469400697930        1.48170994879136       12.32217950774957
Al           1.28533881768704        4.19702046755397       12.27347149127345
Al           4.26055453149003        4.11818247071557       12.30311815589624
Al           7.17177977569309        4.10861479718233       12.29638823925031
Al          10.14932977571713        4.05069634182334       12.31077358426438
Al           2.72673108331684        6.70306883161497       12.26239061382800
Al           5.70235547433070        6.65141329321438       12.28843336266201
Al           8.61960778026136        6.63135441765656       12.28134127341053
Al          11.56194075180675        6.56678488877088       12.30356008444026
Al           4.24893884892102        9.18779093523061       12.32728453377880
Al           7.15600509467389        9.27323363892438       12.37794079182369
Al          10.04109470239692        9.25752469918041       12.37079917855834
Al          12.97908505560950        9.14680599116829       12.35650852162402
Al          -0.04739649399855       -0.02072538836870       14.65639825289982
Al           2.85924187327948       -0.17394595070615       14.60964025862736
Al           5.73354032785350       -0.19452911497717       14.61022422246102
Al           8.65655535772927       -0.14955165196822       14.64544472125215
Al           1.29542488159505        2.54607038801104       14.69528544861408
Al           4.26458112806986        2.45631935807162       14.67926305414865
Al           7.17415591934640        2.43792467095882       14.67870512195684
Al          10.17324720767101        2.38092807441303       14.64515913585312
Al           2.70207779898265        5.05917630540504       14.69070013520829
Al           5.70359106227223        4.98781900471723       14.65812867251430
Al           8.62245408284413        4.97637970247037       14.65503628211678
Al          11.62041582982070        4.90010719954560       14.63491625829916
Al           4.18669755717827        7.61822029601855       14.70222584429007
Al           7.14500452136727        7.60605535822201       14.65848842781259
Al          10.04805897750520        7.59271648527483       14.66363713662150
Al          13.03687892621000        7.52349022151892       14.63715218694438
Al           1.28447940009830        0.73870381769421       17.05430452460920
Al           4.26529253986781        0.65440618816901       17.05763344906962
Al           7.16993275135885        0.64704152207698       17.04706824551244
Al          10.11996732735302        0.69519735389835       17.04665125666043
Al           2.71976131303496        3.36198447835782       17.02598214593308
Al           5.69844043576648        3.28848629616528       17.03975078363523
Al           8.62009764909595        3.27339402894643       17.01514539308787
Al          11.62102781912092        3.20363681909430       17.08076428418562
Al           4.15998262342232        5.88304559078914       17.03218184241103
Al           7.14822679028765        5.82103037413146       17.03790103983585
Al          10.05950854018506        5.80324974586157       17.01320875283397
Al          13.04035716137518        5.70288844554690       17.08229694775736
Al           5.62935799142757        8.45045504049790       16.98729747190843
Al           8.58650903670791        8.45458092777647       16.99968718896601
Al          11.46656774239524        8.41717563482997       16.99687965200594
Al          14.36106256310453        8.29713497412644       17.03512394835648
Al          -0.09170234182159        1.60065137225469       19.33460158503436
Al           2.85076259798377        1.53572454617120       19.38701323734773
Al           5.73820913411932        1.50637309633880       19.38770446815253
Al           8.69136044932994        1.48880690944628       19.37056616963676