&FCI NORB=   5,NELEC=   2,MS2= 1,
  ORBSYM=1,1,1,1,1,
  ISYM=0,
 /
 7.9461823824701391E-02   1   1   1   1
-5.0410073979765212E-05   1   1   1   2
 2.2261112174303628E-04   1   1   1   3
 7.2875494007915262E-04   1   1   1   4
-4.6847599030217857E-04   1   1   1   5
 7.5822078670685161E-02   1   1   2   2
-2.3441971147480380E-05   1   1   2   3
-8.0657534720530175E-04   1   1   2   4
 8.9302709434643302E-04   1   1   2   5
 7.4728623517899301E-02   1   1   3   3
 8.8477903514626506E-04   1   1   3   4
 5.6444024093056330E-04   1   1   3   5
 6.9976667042539811E-02   1   1   4   4
 5.6970471208685810E-04   1   1   4   5
 7.0668563397296949E-02   1   1   5   5
 1.5518274521055795E-03   1   2   1   2
 4.6283359559612143E-05   1   2   1   3
-5.3967114716816579E-05   1   2   1   4
 1.0490819423174787E-04   1   2   1   5
-2.6262971058632769E-05   1   2   2   2
-1.4371935932457172E-04   1   2   2   3
-1.4951709712722683E-05   1   2   2   4
-2.2969068386868654E-04   1   2   2   5
 4.6869967975741623E-05   1   2   3   3
-1.1835844775246440E-04   1   2   3   4
-1.5754005695199576E-05   1   2   3   5
 1.3417146587700802E-04   1   2   4   4
 2.0988325171330261E-05   1   2   4   5
 1.1381816961929643E-05   1   2   5   5
 1.5284888586452649E-03   1   3   1   3
 3.3285514952766500E-04   1   3   1   4
-3.2425582444004257E-04   1   3   1   5
 4.6286431257940231E-04   1   3   2   2
-1.1199513029814287E-04   1   3   2   3
-2.5300872207852196E-04   1   3   2   4
 1.6039231469180585E-04   1   3   2   5
-1.1435445601639749E-04   1   3   3   3
 3.9733588909101166E-04   1   3   3   4
 3.4156115688554673E-05   1   3   3   5
-9.0354173030123577E-05   1   3   4   4
-7.6880993373275276E-05   1   3   4   5
 3.4572651254923640E-05   1   3   5   5
 1.4750600099265208E-03   1   4   1   4
-1.3229357901582288E-04   1   4   1   5
 9.7405560860979704E-04   1   4   2   2
-9.5205792685232985E-05   1   4   2   3
-8.6920710279001821E-05   1   4   2   4
 3.7094024729389282E-04   1   4   2   5
 1.6571201719868219E-04   1   4   3   3
 6.5479079106417937E-04   1   4   3   4
 7.6129772055465487E-05   1   4   3   5
-1.4458550552165985E-04   1   4   4   4
 1.3449812358135786E-04   1   4   4   5
 2.8659033560549688E-04   1   4   5   5
 1.5070118365803123E-03   1   5   1   5
-6.9578817159461604E-04   1   5   2   2
 1.7978878454666551E-04   1   5   2   3
 4.2261805303833863E-04   1   5   2   4
-2.6309389923413837E-04   1   5   2   5
 3.3472893413061299E-07   1   5   3   3
-3.6237399478136246E-04   1   5   3   4
-4.0055796000410431E-05   1   5   3   5
 1.4463188392234655E-04   1   5   4   4
-3.0978994062860822E-06   1   5   4   5
-1.3870942721875342E-04   1   5   5   5
 7.8804656668720247E-02   2   2   2   2
-1.5438281878066241E-04   2   2   2   3
-8.0385276856975653E-04   2   2   2   4
 9.7502249003667679E-04   2   2   2   5
 7.4856951744091807E-02   2   2   3   3
 1.0443935843458528E-03   2   2   3   4
 4.4438106164500430E-04   2   2   3   5
 7.0073354484435371E-02   2   2   4   4
 3.8020721091420865E-04   2   2   4   5
 7.0882878589019344E-02   2   2   5   5
 1.4545495739854825E-03   2   3   2   3
 5.4699048747248899E-05   2   3   2   4
 1.0512006459282207E-04   2   3   2   5
 5.7227909976660443E-05   2   3   3   3
-3.2507769960246391E-05   2   3   3   4
 7.0013809692697935E-05   2   3   3   5
 1.1685303242470616E-04   2   3   4   4
 5.8928194687523768E-05   2   3   4   5
 1.1121819332852439E-04   2   3   5   5
 1.3954477076066163E-03   2   4   2   4
-5.1235740626492856E-04   2   4   2   5
-3.6318335998714800E-04   2   4   3   3
-2.6787150369723197E-04   2   4   3   4
-5.2919418863848736E-05   2   4   3   5
-1.1829383493858074E-04   2   4   4   4
-4.9663792828095996E-05   2   4   4   5
-2.1421739968194802E-04   2   4   5   5
 1.8609461109702330E-03   2   5   2   5
 1.8301963387914026E-04   2   5   3   3
 3.4143092897627014E-04   2   5   3   4
 3.1323769906378940E-04   2   5   3   5
-1.0249119454451203E-04   2   5   4   4
 2.1016252373370144E-04   2   5   4   5
 3.8940070483523117E-04   2   5   5   5
 7.7473319885154254E-02   3   3   3   3
 1.2987526461978789E-04   3   3   3   4
 2.5694942979348473E-04   3   3   3   5
 7.0229312236330596E-02   3   3   4   4
 4.3006855651215263E-04   3   3   4   5
 7.0101034566754969E-02   3   3   5   5
 1.7540352386969671E-03   3   4   3   4
 3.1299265746517540E-04   3   4   3   5
 2.8395084356636763E-05   3   4   4   4
 1.3419899693076795E-04   3   4   4   5
 5.9168902408106001E-04   3   4   5   5
 1.2794072790624847E-03   3   5   3   5
-5.2302853321824376E-05   3   5   4   4
 1.5235435174491255E-04   3   5   4   5
 1.6981134149181856E-04   3   5   5   5
 6.9913798528561222E-02   4   4   4   4
 5.9201055389842031E-04   4   4   4   5
 6.7227341342482719E-02   4   4   5   5
 1.2623692506524751E-03   4   5   4   5
 5.7603955432166125E-04   4   5   5   5
 7.0351725318374858E-02   5   5   5   5
-1.3627660452381690E-01   1   1   0   0
-1.3117100408530349E-04   1   2   0   0
-2.5913999738267669E-03   1   3   0   0
 1.7549616506528861E-03   1   4   0   0
 1.5441471310605923E-03   1   5   0   0
-1.3044898670131594E-01   2   2   0   0
 1.8488427347628554E-03   2   3   0   0
 1.8164914223363880E-03   2   4   0   0
 3.9108214321069369E-04   2   5   0   0
-1.3113052650318233E-01   3   3   0   0
 2.1937726895354735E-03   3   4   0   0
 1.1195335126501439E-03   3   5   0   0
-1.2692984931297835E-01   4   4   0   0
 2.9195623474029259E-04   4   5   0   0
-1.2791429867257317E-01   5   5   0   0
-2.4127607019463022E+02   0   0   0   0
