16
Lattice="5.664822893438226 -4.640872005035482e-09 1.7246988531260337e-08 2.8324114427 4.905880631537895 1.3092858946684748e-09 8.100982170454669e-08 -4.164273509435463e-08 26.945636060583993" Properties=species:S:1:pos:R:3:initial_magmoms:R:1:momenta:R:3:forces:R:3:magmoms:R:1 energy=-57.34528350830078 stress="0.0007184538408182561 -5.56442225629894e-09 -8.24203549854019e-09 -5.62656143898721e-09 0.0007183988345786929 3.210867793868033e-09 -9.669173017812227e-09 1.6855777884572376e-09 -0.0010400395840406418" pbc="T T T"
Al       0.00000003      -0.00000002       9.97439563       0.00549626       0.00000000       0.00000000       0.00000000       0.00000077       0.00000769      -0.02592404       0.00549617
Al       2.83241147      -0.00000002       9.97439564       0.00549622       0.00000000       0.00000000       0.00000000       0.00000082      -0.00000331      -0.02592500       0.00549626
Al       1.41620575       2.45294030       9.97439563       0.00549623       0.00000000       0.00000000       0.00000000      -0.00000626      -0.00000181      -0.02591861       0.00549620
Al       4.24861720       2.45294029       9.97439564       0.00549622       0.00000000       0.00000000       0.00000000       0.00000121      -0.00000020      -0.02592092       0.00549617
Al       1.41620576       0.81764675      12.30667723       0.01889905       0.00000000       0.00000000       0.00000000      -0.00000415       0.00000189      -0.01039245       0.01889908
Al       4.24861721       0.81764675      12.30667724       0.01889886       0.00000000       0.00000000       0.00000000       0.00000605      -0.00000221      -0.01039156       0.01889889
Al       2.83241148       3.27058707      12.30667723       0.01889896       0.00000000       0.00000000       0.00000000      -0.00000363       0.00000253      -0.01039784       0.01889902
Al       5.66482293       3.27058706      12.30667724       0.01889884       0.00000000       0.00000000       0.00000000       0.00000572       0.00000039      -0.01039153       0.01889879
Al      -0.00000064       1.63529358      14.62549679       0.01890236       0.00000000       0.00000000       0.00000000      -0.00000896       0.00000003       0.01485873       0.01890221
Al       2.83241138       1.63529407      14.62549447       0.01890232       0.00000000       0.00000000       0.00000000       0.00000704      -0.00000511       0.01490215       0.01890226
Al       1.41620610       4.08823222      14.62549751       0.01890220       0.00000000       0.00000000       0.00000000      -0.00000220      -0.00000021       0.01486792       0.01890224
Al       4.24861678       4.08823275      14.62549431       0.01890218       0.00000000       0.00000000       0.00000000       0.00000318      -0.00000791       0.01488052       0.01890215
Al      -0.00000442      -0.00000238      16.95956742       0.00547624       0.00000000       0.00000000       0.00000000      -0.00000767      -0.00000813       0.02143709       0.00547636
Al       2.83241607      -0.00000039      16.95956772       0.00547642       0.00000000       0.00000000       0.00000000       0.00000585       0.00003209       0.02143890       0.00547636
Al       1.41620439       2.45294219      16.95956699       0.00547616       0.00000000       0.00000000       0.00000000       0.00003703      -0.00000230       0.02143778       0.00547625
Al       4.24861924       2.45294231      16.95956659       0.00547647       0.00000000       0.00000000       0.00000000      -0.00003486      -0.00001344       0.02143889       0.00547647
