 DBCSR| CPU Multiplication driver                                           XSMM (U)
 DBCSR| Multrec recursion limit                                              512 (U)
 DBCSR| Multiplication stack size                                           1000 (D)
 DBCSR| Maximum elements for images                                    UNLIMITED (U)
 DBCSR| Multiplicative factor virtual images                                   1 (U)
 DBCSR| Use multiplication densification                                       T (D)
 DBCSR| Multiplication size stacks                                             3 (U)
 DBCSR| Use memory pool for CPU allocation                                     F (U)
 DBCSR| Number of 3D layers                                               SINGLE (U)
 DBCSR| Use MPI memory allocation                                              F (U)
 DBCSR| Use RMA algorithm                                                      F (U)
 DBCSR| Use Communication thread                                               T (U)
 DBCSR| Communication thread load                                             83 (D)
 DBCSR| MPI: My process id                                                     0
 DBCSR| MPI: Number of processes                                               8
 DBCSR| OMP: Current number of threads                                         2
 DBCSR| OMP: Max number of threads                                             2
 DBCSR| Split modifier for TAS multiplication algorithm                  1.0E+00 (U)


  **** **** ******  **  PROGRAM STARTED AT               2024-08-12 14:23:39.171
 ***** ** ***  *** **   PROGRAM STARTED ON                          0369ef120528
 **    ****   ******    PROGRAM STARTED BY                             <unknown>
 ***** **    ** ** **   PROGRAM PROCESS ID                                139306
  **** **  *******  **  PROGRAM STARTED IN                            /workspace

 CP2K| version string:                                       CP2K version 2024.1
 CP2K| source code revision number:                                  git:b4a17a5
 CP2K| cp2kflags: omp libint fftw3 libxc libgrpp pexsi elpa parallel scalapack c
 CP2K|            osma quip xsmm plumed2 spglib sirius libvori libbqb libtorch l
 CP2K|            libvdwxc hdf5
 CP2K| is freely available from                            https://www.cp2k.org/
 CP2K| Program compiled at                          Tue Jan  9 15:07:54 UTC 2024
 CP2K| Program compiled on                                       buildkitsandbox
 CP2K| Program compiled for                                                local
 CP2K| Data directory path                                        /opt/cp2k/data
 CP2K| Input file name                                                  supp.inp

 GLOBAL| Force Environment number                                              1
 GLOBAL| Basis set file name                                     BASIS_ccGRB_UZH
 GLOBAL| Potential file name                                       POTENTIAL_UZH
 GLOBAL| MM Potential file name                                     MM_POTENTIAL
 GLOBAL| Coordinate file name                                            MgO.xyz
 GLOBAL| Method name                                                        CP2K
 GLOBAL| Project name                                                        MgO
 GLOBAL| Run type                                                         ENERGY
 GLOBAL| FFT library                                                       FFTW3
 GLOBAL| Diagonalization library                                            ELPA
 GLOBAL| DGEMM library                                                      BLAS
 GLOBAL| Minimum number of eigenvectors for ELPA usage                        16
 GLOBAL| Orthonormality check for eigenvectors                          DISABLED
 GLOBAL| Matrix multiplication library                                     COSMA
 GLOBAL| All-to-all communication in single precision                          F
 GLOBAL| FFTs using library dependent lengths                                  F
 GLOBAL| Grid backend                                                       AUTO
 GLOBAL| Global print level                                               MEDIUM
 GLOBAL| MPI I/O enabled                                                       T
 GLOBAL| Total number of message passing processes                             8
 GLOBAL| Number of threads for this process                                    2
 GLOBAL| This output is from process                                           0
 GLOBAL| Stack size for threads created by OpenMP (OMP_STACKSIZE)        default
 GLOBAL| CPU model name                    Intel(R) Xeon(R) W-2295 CPU @ 3.00GHz
 GLOBAL| CPUID                                                              1003
 GLOBAL| Compiled for CPUID                                                    0

 *** HINT in environment.F:920 :: The compiler target flags (generic) used ***
 *** to build this binary cannot exploit all extensions of this CPU model  ***
 *** (x86_avx512). Consider compiler target flags as part of FCFLAGS and   ***
 *** CFLAGS (ARCH file).                                                   ***


 MEMORY| system memory details [Kb]
 MEMORY|                        rank 0           min           max       average
 MEMORY| MemTotal            197536456     197536456     197536456     197536456
 MEMORY| MemFree             152199804     152199804     152199804     152199804
 MEMORY| Buffers               1206460       1206460       1206460       1206460
 MEMORY| Cached               26950540      26950540      26950540      26950540
 MEMORY| Slab                  2841904       2841904       2841904       2841904
 MEMORY| SReclaimable          2102792       2102792       2102792       2102792
 MEMORY| MemLikelyFree       182459596     182459596     182459596     182459596


 *** Fundamental physical constants (SI units) ***

 *** Literature: B. J. Mohr and B. N. Taylor,
 ***             CODATA recommended values of the fundamental physical
 ***             constants: 2006, Web Version 5.1
 ***             http://physics.nist.gov/constants

 Speed of light in vacuum [m/s]                             2.99792458000000E+08
 Magnetic constant or permeability of vacuum [N/A**2]       1.25663706143592E-06
 Electric constant or permittivity of vacuum [F/m]          8.85418781762039E-12
 Planck constant (h) [J*s]                                  6.62606896000000E-34
 Planck constant (h-bar) [J*s]                              1.05457162825177E-34
 Elementary charge [C]                                      1.60217648700000E-19
 Electron mass [kg]                                         9.10938215000000E-31
 Electron g factor [ ]                                     -2.00231930436220E+00
 Proton mass [kg]                                           1.67262163700000E-27
 Fine-structure constant                                    7.29735253760000E-03
 Rydberg constant [1/m]                                     1.09737315685270E+07
 Avogadro constant [1/mol]                                  6.02214179000000E+23
 Boltzmann constant [J/K]                                   1.38065040000000E-23
 Atomic mass unit [kg]                                      1.66053878200000E-27
 Bohr radius [m]                                            5.29177208590000E-11

 *** Conversion factors ***

 [u] -> [a.u.]                                              1.82288848426455E+03
 [Angstrom] -> [Bohr] = [a.u.]                              1.88972613288564E+00
 [a.u.] = [Bohr] -> [Angstrom]                              5.29177208590000E-01
 [a.u.] -> [s]                                              2.41888432650478E-17
 [a.u.] -> [fs]                                             2.41888432650478E-02
 [a.u.] -> [J]                                              4.35974393937059E-18
 [a.u.] -> [N]                                              8.23872205491840E-08
 [a.u.] -> [K]                                              3.15774647902944E+05
 [a.u.] -> [kJ/mol]                                         2.62549961709828E+03
 [a.u.] -> [kcal/mol]                                       6.27509468713739E+02
 [a.u.] -> [Pa]                                             2.94210107994716E+13
 [a.u.] -> [bar]                                            2.94210107994716E+08
 [a.u.] -> [atm]                                            2.90362800883016E+08
 [a.u.] -> [eV]                                             2.72113838565563E+01
 [a.u.] -> [Hz]                                             6.57968392072181E+15
 [a.u.] -> [1/cm] (wave numbers)                            2.19474631370540E+05
 [a.u./Bohr**2] -> [1/cm]                                   5.14048714338585E+03
 

 CELL_TOP| Volume [angstrom^3]:                                       624.599700
 CELL_TOP| Vector a [angstrom     8.548     0.000     0.000   |a| =     8.548054
 CELL_TOP| Vector b [angstrom     0.000     8.548     0.000   |b| =     8.548054
 CELL_TOP| Vector c [angstrom     0.000     0.000     8.548   |c| =     8.548054
 CELL_TOP| Angle (b,c), alpha [degree]:                                90.000000
 CELL_TOP| Angle (a,c), beta  [degree]:                                90.000000
 CELL_TOP| Angle (a,b), gamma [degree]:                                90.000000
 CELL_TOP| Numerically orthorhombic:                                         YES
 CELL_TOP| Periodicity                                                       XYZ

 GENERATE|  Preliminary Number of Bonds generated:                             0
 GENERATE|  Achieved consistency in connectivity generation.

 CELL| Volume [angstrom^3]:                                           624.599700
 CELL| Vector a [angstrom]:       8.548     0.000     0.000   |a| =     8.548054
 CELL| Vector b [angstrom]:       0.000     8.548     0.000   |b| =     8.548054
 CELL| Vector c [angstrom]:       0.000     0.000     8.548   |c| =     8.548054
 CELL| Angle (b,c), alpha [degree]:                                    90.000000
 CELL| Angle (a,c), beta  [degree]:                                    90.000000
 CELL| Angle (a,b), gamma [degree]:                                    90.000000
 CELL| Numerically orthorhombic:                                             YES
 CELL| Periodicity                                                           XYZ

 CELL_REF| Volume [angstrom^3]:                                       624.599700
 CELL_REF| Vector a [angstrom     8.548     0.000     0.000   |a| =     8.548054
 CELL_REF| Vector b [angstrom     0.000     8.548     0.000   |b| =     8.548054
 CELL_REF| Vector c [angstrom     0.000     0.000     8.548   |c| =     8.548054
 CELL_REF| Angle (b,c), alpha [degree]:                                90.000000
 CELL_REF| Angle (a,c), beta  [degree]:                                90.000000
 CELL_REF| Angle (a,b), gamma [degree]:                                90.000000
 CELL_REF| Numerically orthorhombic:                                         YES
 CELL_REF| Periodicity                                                       XYZ

 *******************************************************************************
 *******************************************************************************
 **                                                                           **
 **     #####                         ##              ##                      **
 **    ##   ##            ##          ##              ##                      **
 **   ##     ##                       ##            ######                    **
 **   ##     ##  ##   ##  ##   #####  ##  ##   ####   ##    #####    #####    **
 **   ##     ##  ##   ##  ##  ##      ## ##   ##      ##   ##   ##  ##   ##   **
 **   ##  ## ##  ##   ##  ##  ##      ####     ###    ##   ######   ######    **
 **    ##  ###   ##   ##  ##  ##      ## ##      ##   ##   ##       ##        **
 **     #######   #####   ##   #####  ##  ##  ####    ##    #####   ##        **
 **           ##                                                    ##        **
 **                                                                           **
 **                                                ... make the atoms dance   **
 **                                                                           **
 **            Copyright (C) by CP2K developers group (2000-2024)             **
 **                      J. Chem. Phys. 152, 194103 (2020)                    **
 **                                                                           **
 *******************************************************************************

 DFT| Spin restricted Kohn-Sham (RKS) calculation                            RKS
 DFT| Multiplicity                                                             1
 DFT| Number of spin states                                                    1
 DFT| Charge                                                                   0
 DFT| Self-interaction correction (SIC)                                       NO
 DFT| Cutoffs: density                                              1.000000E-10
 DFT|          gradient                                             1.000000E-10
 DFT|          tau                                                  1.000000E-10
 DFT|          cutoff_smoothing_range                               0.000000E+00
 DFT| XC density smoothing                                                  NONE
 DFT| XC derivatives                                                          PW

 FUNCTIONAL| LDA_C_PW:
 FUNCTIONAL| [1] J. P. Perdew and Y. Wang.,  Phys. Rev. B 45, 13244 (1992), doi:
 FUNCTIONAL|  10.1103/PhysRevB.45.13244                                         
 FUNCTIONAL| Optional external parameters:                                      
 FUNCTIONAL|  * pp0                                                             
 FUNCTIONAL|  * pp1                                                             
 FUNCTIONAL|  * pp2                                                             
 FUNCTIONAL|  * a0                                                              
 FUNCTIONAL|  * a1                                                              
 FUNCTIONAL|  * a2                                                              
 FUNCTIONAL|  * alpha10                                                         
 FUNCTIONAL|  * alpha11                                                         
 FUNCTIONAL|  * alpha12                                                         
 FUNCTIONAL|  * beta10                                                          
 FUNCTIONAL|  * beta11                                                          
 FUNCTIONAL|  * beta12                                                          
 FUNCTIONAL|  * beta20                                                          
 FUNCTIONAL|  * beta21                                                          
 FUNCTIONAL|  * beta22                                                          
 FUNCTIONAL|  * beta30                                                          
 FUNCTIONAL|  * beta31                                                          
 FUNCTIONAL|  * beta32                                                          
 FUNCTIONAL|  * beta40                                                          
 FUNCTIONAL|  * beta41                                                          
 FUNCTIONAL|  * beta42                                                          
 FUNCTIONAL|  * fz20                                                            
 FUNCTIONAL| {scale=1.000, spin-unpolarized}                                    
 FUNCTIONAL| LDA_X_ERF:
 FUNCTIONAL| [1] P. M. W. Gill, R. D. Adamson, and J. A. Pople.,  Mol. Phys. 88,
 FUNCTIONAL|  1005-1009 (1996), doi: 10.1080/00268979609484488                  
 FUNCTIONAL| Optional external parameters:                                      
 FUNCTIONAL|  * screening parameter                                             
 FUNCTIONAL| {scale=1.000, spin-unpolarized}                                    
 FUNCTIONAL| LDA_C_PMGB06:
 FUNCTIONAL| [1] S. Paziani, S. Moroni, P. Gori-Giorgi, and G. B. Bachelet.,  Ph
 FUNCTIONAL| ys. Rev. B 73, 155111 (2006), doi: 10.1103/PhysRevB.73.155111      
 FUNCTIONAL| Optional external parameters:                                      
 FUNCTIONAL|  * screening parameter                                             
 FUNCTIONAL| {scale=*****, spin-unpolarized}                                    


 QS| Method:                                                                 GPW
 QS| Density plane wave grid type                        NON-SPHERICAL FULLSPACE
 QS| Number of grid levels:                                                    4
 QS| Density cutoff [a.u.]:                                                500.0
 QS| Multi grid cutoff [a.u.]: 1) grid level                               500.0
 QS|                           2) grid level                               166.7
 QS|                           3) grid level                                55.6
 QS|                           4) grid level                                18.5
 QS| Grid level progression factor:                                          3.0
 QS| Relative density cutoff [a.u.]:                                        25.0
 QS| Interaction thresholds: eps_pgf_orb:                                1.0E-05
 QS|                         eps_filter_matrix:                          0.0E+00
 QS|                         eps_core_charge:                            1.0E-12
 QS|                         eps_rho_gspace:                             1.0E-10
 QS|                         eps_rho_rspace:                             1.0E-10
 QS|                         eps_gvg_rspace:                             1.0E-05
 QS|                         eps_ppl:                                    1.0E-02
 QS|                         eps_ppnl:                                   1.0E-07


 ATOMIC KIND INFORMATION

  1. Atomic kind: Mg                                    Number of atoms:      26

     Orbital Basis Set                                               ccgrb-d-q10

       Number of orbital shell sets:                                           2
       Number of orbital shells:                                               6
       Number of primitive Cartesian functions:                                7
       Number of Cartesian basis functions:                                   15
       Number of spherical basis functions:                                   14
       Norm type:                                                              2

       Normalised Cartesian orbitals:

                        Set   Shell   Orbital            Exponent    Coefficient

                          1       1    1s               22.432196       1.030485
                                                         7.209623       0.131236
                                                         2.317145      -0.888700
                                                         0.744722      -0.261683
                                                         0.239351      -0.000568
                                                         0.076926      -0.000500

                          1       2    2s               22.432196       0.232640
                                                         7.209623       0.035974
                                                         2.317145      -0.261965
                                                         0.744722      -0.136498
                                                         0.239351       0.016613
                                                         0.076926       0.107322

                          1       3    3s               22.432196      -0.406969
                                                         7.209623       0.066619
                                                         2.317145       0.206544
                                                         0.744722       0.607738
                                                         0.239351      -0.638700
                                                         0.076926       0.165275

                          1       4    2px              22.432196       6.704829
                                                         7.209623       5.044682
                                                         2.317145       2.029176
                                                         0.744722       0.309178
                                                         0.239351       0.006437
                                                         0.076926       0.000081
                          1       4    2py              22.432196       6.704829
                                                         7.209623       5.044682
                                                         2.317145       2.029176
                                                         0.744722       0.309178
                                                         0.239351       0.006437
                                                         0.076926       0.000081
                          1       4    2pz              22.432196       6.704829
                                                         7.209623       5.044682
                                                         2.317145       2.029176
                                                         0.744722       0.309178
                                                         0.239351       0.006437
                                                         0.076926       0.000081

                          1       5    3px              22.432196      -2.708826
                                                         7.209623      -2.472946
                                                         2.317145      -0.667721
                                                         0.744722      -0.160983
                                                         0.239351       0.239345
                                                         0.076926       0.006565
                          1       5    3py              22.432196      -2.708826
                                                         7.209623      -2.472946
                                                         2.317145      -0.667721
                                                         0.744722      -0.160983
                                                         0.239351       0.239345
                                                         0.076926       0.006565
                          1       5    3pz              22.432196      -2.708826
                                                         7.209623      -2.472946
                                                         2.317145      -0.667721
                                                         0.744722      -0.160983
                                                         0.239351       0.239345
                                                         0.076926       0.006565

                          2       1    1dx2              0.193200       0.092666
                          2       1    1dxy              0.193200       0.160503
                          2       1    1dxz              0.193200       0.160503
                          2       1    1dy2              0.193200       0.092666
                          2       1    1dyz              0.193200       0.160503
                          2       1    1dz2              0.193200       0.092666

       Atomic covalent radius [Angstrom]:                                  1.360

       Atomic van der Waals radius [Angstrom]:                             1.730

     GTH Potential information for                                   gth-hyb-q10

       Description:                       Goedecker-Teter-Hutter pseudopotential
                                           Goedecker et al., PRB 54, 1703 (1996)
                                          Hartwigsen et al., PRB 58, 3641 (1998)
                                                      Krack, TCA 114, 145 (2005)

       Gaussian exponent of the core charge distribution:              13.631610
       Electronic configuration (s p d ...):                       4   6   0   0

       Parameters of the local part of the GTH pseudopotential:

                          rloc        C1          C2          C3          C4
                        0.191519  -20.589965    3.054227    0.010372

       Parameters of the non-local part of the GTH pseudopotential:

                   l      r(l)      h(i,j,l)

                   0    0.141181   41.046492
                   1    0.103444  -10.149942

  2. Atomic kind: Mg1                                   Number of atoms:       6

     Orbital Basis Set                                               ccgrb-t-q10

       Number of orbital shell sets:                                           3
       Number of orbital shells:                                              10
       Number of primitive Cartesian functions:                               10
       Number of Cartesian basis functions:                                   35
       Number of spherical basis functions:                                   30
       Norm type:                                                              2

       Normalised Cartesian orbitals:

                        Set   Shell   Orbital            Exponent    Coefficient

                          1       1    1s               26.086483       0.786005
                                                         9.572948       0.547428
                                                         3.512981      -0.717160
                                                         1.289157      -0.529413
                                                         0.473082      -0.075234
                                                         0.173607       0.002199
                                                         0.063708      -0.000339

                          1       2    2s               26.086483       0.174260
                                                         9.572948       0.131476
                                                         3.512981      -0.189144
                                                         1.289157      -0.190827
                                                         0.473082      -0.064854
                                                         0.173607       0.056194
                                                         0.063708       0.077709

                          1       3    3s               26.086483      -0.560879
                                                         9.572948       0.053954
                                                         3.512981      -0.145021
                                                         1.289157       1.445893
                                                         0.473082      -0.844292
                                                         0.173607      -0.032976
                                                         0.063708       0.075914

                          1       4    4s               26.086483       0.437833
                                                         9.572948      -0.449164
                                                         3.512981       0.763677
                                                         1.289157      -1.766174
                                                         0.473082       1.709969
                                                         0.173607      -0.856532
                                                         0.063708       0.191230

                          1       5    2px              26.086483      -5.643712
                                                         9.572948      -5.089545
                                                         3.512981      -2.722989
                                                         1.289157      -0.796601
                                                         0.473082      -0.081836
                                                         0.173607      -0.000922
                                                         0.063708      -0.000031
                          1       5    2py              26.086483      -5.643712
                                                         9.572948      -5.089545
                                                         3.512981      -2.722989
                                                         1.289157      -0.796601
                                                         0.473082      -0.081836
                                                         0.173607      -0.000922
                                                         0.063708      -0.000031
                          1       5    2pz              26.086483      -5.643712
                                                         9.572948      -5.089545
                                                         3.512981      -2.722989
                                                         1.289157      -0.796601
                                                         0.473082      -0.081836
                                                         0.173607      -0.000922
                                                         0.063708      -0.000031

                          1       6    3px              26.086483       2.184064
                                                         9.572948       2.598889
                                                         3.512981       0.942716
                                                         1.289157       0.486271
                                                         0.473082      -0.165883
                                                         0.173607      -0.134541
                                                         0.063708       0.001333
                          1       6    3py              26.086483       2.184064
                                                         9.572948       2.598889
                                                         3.512981       0.942716
                                                         1.289157       0.486271
                                                         0.473082      -0.165883
                                                         0.173607      -0.134541
                                                         0.063708       0.001333
                          1       6    3pz              26.086483       2.184064
                                                         9.572948       2.598889
                                                         3.512981       0.942716
                                                         1.289157       0.486271
                                                         0.473082      -0.165883
                                                         0.173607      -0.134541
                                                         0.063708       0.001333

                          1       7    4px              26.086483      -3.290937
                                                         9.572948      -1.560822
                                                         3.512981      -2.037962
                                                         1.289157       0.070392
                                                         0.473082       0.325213
                                                         0.173607       0.041272
                                                         0.063708      -0.049827
                          1       7    4py              26.086483      -3.290937
                                                         9.572948      -1.560822
                                                         3.512981      -2.037962
                                                         1.289157       0.070392
                                                         0.473082       0.325213
                                                         0.173607       0.041272
                                                         0.063708      -0.049827
                          1       7    4pz              26.086483      -3.290937
                                                         9.572948      -1.560822
                                                         3.512981      -2.037962
                                                         1.289157       0.070392
                                                         0.473082       0.325213
                                                         0.173607       0.041272
                                                         0.063708      -0.049827

                          2       1    1dx2              0.299800       0.199924
                                                         0.128500       0.000000
                          2       1    1dxy              0.299800       0.346278
                                                         0.128500       0.000000
                          2       1    1dxz              0.299800       0.346278
                                                         0.128500       0.000000
                          2       1    1dy2              0.299800       0.199924
                                                         0.128500       0.000000
                          2       1    1dyz              0.299800       0.346278
                                                         0.128500       0.000000
                          2       1    1dz2              0.299800       0.199924
                                                         0.128500       0.000000

                          2       2    2dx2              0.299800       0.000000
                                                         0.128500       0.045393
                          2       2    2dxy              0.299800       0.000000
                                                         0.128500       0.078623
                          2       2    2dxz              0.299800       0.000000
                                                         0.128500       0.078623
                          2       2    2dy2              0.299800       0.000000
                                                         0.128500       0.045393
                          2       2    2dyz              0.299800       0.000000
                                                         0.128500       0.078623
                          2       2    2dz2              0.299800       0.000000
                                                         0.128500       0.045393

                          3       1    1fx3              0.241700       0.060301
                          3       1    1fx2y             0.241700       0.134838
                          3       1    1fx2z             0.241700       0.134838
                          3       1    1fxy2             0.241700       0.134838
                          3       1    1fxyz             0.241700       0.233546
                          3       1    1fxz2             0.241700       0.134838
                          3       1    1fy3              0.241700       0.060301
                          3       1    1fy2z             0.241700       0.134838
                          3       1    1fyz2             0.241700       0.134838
                          3       1    1fz3              0.241700       0.060301

       Atomic covalent radius [Angstrom]:                                  1.360

       Atomic van der Waals radius [Angstrom]:                             1.730

     GTH Potential information for                                   gth-hyb-q10

       Description:                       Goedecker-Teter-Hutter pseudopotential
                                           Goedecker et al., PRB 54, 1703 (1996)
                                          Hartwigsen et al., PRB 58, 3641 (1998)
                                                      Krack, TCA 114, 145 (2005)

       Gaussian exponent of the core charge distribution:              13.631610
       Electronic configuration (s p d ...):                       4   6   0   0

       Parameters of the local part of the GTH pseudopotential:

                          rloc        C1          C2          C3          C4
                        0.191519  -20.589965    3.054227    0.010372

       Parameters of the non-local part of the GTH pseudopotential:

                   l      r(l)      h(i,j,l)

                   0    0.141181   41.046492
                   1    0.103444  -10.149942

  3. Atomic kind: O                                     Number of atoms:      31

     Orbital Basis Set                                                ccgrb-d-q6

       Number of orbital shell sets:                                           2
       Number of orbital shells:                                               5
       Number of primitive Cartesian functions:                                5
       Number of Cartesian basis functions:                                   14
       Number of spherical basis functions:                                   13
       Norm type:                                                              2

       Normalised Cartesian orbitals:

                        Set   Shell   Orbital            Exponent    Coefficient

                          1       1    1s                8.329701      -0.539122
                                                         2.449085       0.077872
                                                         0.720076       0.403512
                                                         0.211716       0.075417

                          1       2    2s                8.329701       0.438938
                                                         2.449085      -0.037683
                                                         0.720076      -0.798097
                                                         0.211716       0.342568

                          1       3    2px               8.329701       1.919618
                                                         2.449085       1.337448
                                                         0.720076       0.463189
                                                         0.211716       0.073564
                          1       3    2py               8.329701       1.919618
                                                         2.449085       1.337448
                                                         0.720076       0.463189
                                                         0.211716       0.073564
                          1       3    2pz               8.329701       1.919618
                                                         2.449085       1.337448
                                                         0.720076       0.463189
                                                         0.211716       0.073564

                          1       4    3px               8.329701      -1.840835
                                                         2.449085      -1.158505
                                                         0.720076      -0.622457
                                                         0.211716       0.235438
                          1       4    3py               8.329701      -1.840835
                                                         2.449085      -1.158505
                                                         0.720076      -0.622457
                                                         0.211716       0.235438
                          1       4    3pz               8.329701      -1.840835
                                                         2.449085      -1.158505
                                                         0.720076      -0.622457
                                                         0.211716       0.235438

                          2       1    1dx2              1.185000       2.215218
                          2       1    1dxy              1.185000       3.836871
                          2       1    1dxz              1.185000       3.836871
                          2       1    1dy2              1.185000       2.215218
                          2       1    1dyz              1.185000       3.836871
                          2       1    1dz2              1.185000       2.215218

       Atomic covalent radius [Angstrom]:                                  0.730

       Atomic van der Waals radius [Angstrom]:                             1.520

     GTH Potential information for                                    gth-hyb-q6

       Description:                       Goedecker-Teter-Hutter pseudopotential
                                           Goedecker et al., PRB 54, 1703 (1996)
                                          Hartwigsen et al., PRB 58, 3641 (1998)
                                                      Krack, TCA 114, 145 (2005)

       Gaussian exponent of the core charge distribution:               8.214783
       Electronic configuration (s p d ...):                       2   4   0   0

       Parameters of the local part of the GTH pseudopotential:

                          rloc        C1          C2          C3          C4
                        0.246710  -16.655333    2.508548

       Parameters of the non-local part of the GTH pseudopotential:

                   l      r(l)      h(i,j,l)

                   0    0.221002   18.343705

  4. Atomic kind: OX                                    Number of atoms:       1

     Orbital Basis Set                                                ccgrb-t-q6

       Number of orbital shell sets:                                           3
       Number of orbital shells:                                               9
       Number of primitive Cartesian functions:                                8
       Number of Cartesian basis functions:                                   34
       Number of spherical basis functions:                                   29
       Norm type:                                                              2

       Normalised Cartesian orbitals:

                        Set   Shell   Orbital            Exponent    Coefficient

                          1       1    1s               10.251543      -0.411126
                                                         3.663839      -0.198039
                                                         1.309434       0.343538
                                                         0.467984       0.239257
                                                         0.167254       0.034036

                          1       2    2s               10.251543       0.307167
                                                         3.663839       0.218584
                                                         1.309434      -0.510837
                                                         0.467984      -0.334451
                                                         0.167254       0.278441

                          1       3    3s               10.251543      -0.165638
                                                         3.663839      -1.058865
                                                         1.309434       2.538348
                                                         0.467984      -1.444394
                                                         0.167254       0.310791

                          1       4    2px              10.251543      -1.565455
                                                         3.663839      -1.339206
                                                         1.309434      -0.735802
                                                         0.467984      -0.216397
                                                         0.167254      -0.038742
                          1       4    2py              10.251543      -1.565455
                                                         3.663839      -1.339206
                                                         1.309434      -0.735802
                                                         0.467984      -0.216397
                                                         0.167254      -0.038742
                          1       4    2pz              10.251543      -1.565455
                                                         3.663839      -1.339206
                                                         1.309434      -0.735802
                                                         0.467984      -0.216397
                                                         0.167254      -0.038742

                          1       5    3px              10.251543       1.184868
                                                         3.663839       1.230372
                                                         1.309434       0.580597
                                                         0.467984       0.249973
                                                         0.167254      -0.179255
                          1       5    3py              10.251543       1.184868
                                                         3.663839       1.230372
                                                         1.309434       0.580597
                                                         0.467984       0.249973
                                                         0.167254      -0.179255
                          1       5    3pz              10.251543       1.184868
                                                         3.663839       1.230372
                                                         1.309434       0.580597
                                                         0.467984       0.249973
                                                         0.167254      -0.179255

                          1       6    4px              10.251543      -2.629130
                                                         3.663839      -1.080422
                                                         1.309434      -2.241581
                                                         0.467984       1.130435
                                                         0.167254      -0.164930
                          1       6    4py              10.251543      -2.629130
                                                         3.663839      -1.080422
                                                         1.309434      -2.241581
                                                         0.467984       1.130435
                                                         0.167254      -0.164930
                          1       6    4pz              10.251543      -2.629130
                                                         3.663839      -1.080422
                                                         1.309434      -2.241581
                                                         0.467984       1.130435
                                                         0.167254      -0.164930

                          2       1    1dx2              2.314000       7.145709
                                                         0.645000       0.000000
                          2       1    1dxy              2.314000      12.376731
                                                         0.645000       0.000000
                          2       1    1dxz              2.314000      12.376731
                                                         0.645000       0.000000
                          2       1    1dy2              2.314000       7.145709
                                                         0.645000       0.000000
                          2       1    1dyz              2.314000      12.376731
                                                         0.645000       0.000000
                          2       1    1dz2              2.314000       7.145709
                                                         0.645000       0.000000

                          2       2    2dx2              2.314000       0.000000
                                                         0.645000       0.764080
                          2       2    2dxy              2.314000       0.000000
                                                         0.645000       1.323426
                          2       2    2dxz              2.314000       0.000000
                                                         0.645000       1.323426
                          2       2    2dy2              2.314000       0.000000
                                                         0.645000       0.764080
                          2       2    2dyz              2.314000       0.000000
                                                         0.645000       1.323426
                          2       2    2dz2              2.314000       0.000000
                                                         0.645000       0.764080

                          3       1    1fx3              1.428000       3.281655
                          3       1    1fx2y             1.428000       7.338004
                          3       1    1fx2z             1.428000       7.338004
                          3       1    1fxy2             1.428000       7.338004
                          3       1    1fxyz             1.428000      12.709795
                          3       1    1fxz2             1.428000       7.338004
                          3       1    1fy3              1.428000       3.281655
                          3       1    1fy2z             1.428000       7.338004
                          3       1    1fyz2             1.428000       7.338004
                          3       1    1fz3              1.428000       3.281655

     The atoms of this atomic kind are GHOST atoms!

       Atomic covalent radius [Angstrom]:                                  0.730

       Atomic van der Waals radius [Angstrom]:                             1.520


 MOLECULE KIND INFORMATION


 All atoms are their own molecule, skipping detailed information


 TOTAL NUMBERS AND MAXIMUM NUMBERS

  Total number of            - Atomic kinds:                                   4
                             - Atoms:                                         64
                             - Shell sets:                                   135
                             - Shells:                                       380
                             - Primitive Cartesian functions:                405
                             - Cartesian basis functions:                   1068
                             - Spherical basis functions:                    976

  Maximum angular momentum of- Orbital basis functions:                        3
                             - Local part of the GTH pseudopotential:          4
                             - Non-local part of the GTH pseudopotential:      1


 MODULE QUICKSTEP: ATOMIC COORDINATES IN ANGSTROM

   Atom Kind Element         X             Y             Z       Z(eff)     Mass
      1    1 Mg   12      0.000000      0.002899      0.000000  10.0000  24.3050
      2    1 Mg   12      0.000000      0.001486      4.274027  10.0000  24.3050
      3    1 Mg   12     -0.000000      4.276408     -0.000000  10.0000  24.3050
      4    1 Mg   12      0.000000      4.278202      4.274027  10.0000  24.3050
      5    1 Mg   12      4.274027      0.001486      0.000000  10.0000  24.3050
      6    1 Mg   12      4.274027      4.278202      0.000000  10.0000  24.3050
      7    1 Mg   12     -0.000000      2.181830      2.135785  10.0000  24.3050
      8    1 Mg   12      0.000000      2.181830      6.412269  10.0000  24.3050
      9    1 Mg   12     -0.000000      6.455918      2.137195  10.0000  24.3050
     10    1 Mg   12      0.000000      6.455919      6.410859  10.0000  24.3050
     11    1 Mg   12      4.274027      6.455894      2.136759  10.0000  24.3050
     12    1 Mg   12      4.274027      6.455894      6.411295  10.0000  24.3050
     13    1 Mg   12      2.137018      0.002658      2.137018  10.0000  24.3050
     14    1 Mg   12      2.137018      0.002658      6.411036  10.0000  24.3050
     15    1 Mg   12      2.137057      4.276675      2.137057  10.0000  24.3050
     16    1 Mg   12      2.137058      4.276675      6.410997  10.0000  24.3050
     17    1 Mg   12      6.411036      0.002658      2.137018  10.0000  24.3050
     18    1 Mg   12      6.411036      0.002658      6.411036  10.0000  24.3050
     19    1 Mg   12      6.410997      4.276675      2.137058  10.0000  24.3050
     20    1 Mg   12      6.410997      4.276675      6.410997  10.0000  24.3050
     21    1 Mg   12      2.135785      2.181830     -0.000000  10.0000  24.3050
     22    1 Mg   12      2.137195      6.455918     -0.000000  10.0000  24.3050
     23    1 Mg   12      2.136759      6.455894      4.274027  10.0000  24.3050
     24    1 Mg   12      6.412269      2.181830      0.000000  10.0000  24.3050
     25    1 Mg   12      6.410859      6.455919      0.000000  10.0000  24.3050
     26    1 Mg   12      6.411295      6.455894      4.274027  10.0000  24.3050
     27    2 Mg   12      4.274027      0.001296      4.274027  10.0000  24.3050
     28    2 Mg   12      4.274027      4.277139      4.274027  10.0000  24.3050
     29    2 Mg   12      4.274027      2.181931      2.091269  10.0000  24.3050
     30    2 Mg   12      4.274027      2.181931      6.456785  10.0000  24.3050
     31    2 Mg   12      2.091269      2.181931      4.274027  10.0000  24.3050
     32    2 Mg   12      6.456785      2.181931      4.274027  10.0000  24.3050
     33    3 O     8     -0.000000      0.024658      2.139448   6.0000  15.9994
     34    3 O     8     -0.000000      0.024653      6.408606   6.0000  15.9994
     35    3 O     8      0.000000      4.294578      2.138613   6.0000  15.9994
     36    3 O     8      0.000000      4.294574      6.409442   6.0000  15.9994
     37    3 O     8      4.274027      0.026164      2.134987   6.0000  15.9994
     38    3 O     8      4.274027      0.026163      6.413066   6.0000  15.9994
     39    3 O     8      4.274027      4.295607      2.132390   6.0000  15.9994
     40    3 O     8      4.274027      4.295607      6.415663   6.0000  15.9994
     41    3 O     8     -0.000000      2.161847     -0.000000   6.0000  15.9994
     42    3 O     8     -0.000000      2.163204      4.274027   6.0000  15.9994
     43    3 O     8      0.000001      6.436902      0.000001   6.0000  15.9994
     44    3 O     8      0.000000      6.437002      4.274028   6.0000  15.9994
     45    3 O     8      4.274027      2.163204     -0.000000   6.0000  15.9994
     46    3 O     8      4.274028      6.437002      0.000000   6.0000  15.9994
     47    3 O     8      4.274027      6.435820      4.274027   6.0000  15.9994
     48    3 O     8      2.139448      0.024658     -0.000000   6.0000  15.9994
     49    3 O     8      2.134987      0.026164      4.274027   6.0000  15.9994
     50    3 O     8      2.138613      4.294578      0.000000   6.0000  15.9994
     51    3 O     8      2.132390      4.295607      4.274027   6.0000  15.9994
     52    3 O     8      6.408606      0.024653     -0.000000   6.0000  15.9994
     53    3 O     8      6.413066      0.026163      4.274027   6.0000  15.9994
     54    3 O     8      6.409442      4.294574      0.000000   6.0000  15.9994
     55    3 O     8      6.415663      4.295607      4.274027   6.0000  15.9994
     56    3 O     8      2.134131      2.161475      2.134131   6.0000  15.9994
     57    3 O     8      2.134131      2.161473      6.413923   6.0000  15.9994
     58    3 O     8      2.138144      6.436768      2.138144   6.0000  15.9994
     59    3 O     8      2.138145      6.436766      6.409911   6.0000  15.9994
     60    3 O     8      6.413923      2.161473      2.134131   6.0000  15.9994
     61    3 O     8      6.413923      2.161472      6.413923   6.0000  15.9994
     62    3 O     8      6.409911      6.436766      2.138145   6.0000  15.9994
     63    3 O     8      6.409910      6.436763      6.409910   6.0000  15.9994
     64    4 O     8      4.274027      2.167693      4.274027   0.0000  15.9994



 SCF PARAMETERS         Density guess:                                   RESTART
                        --------------------------------------------------------
                        max_scf:                                             100
                        max_scf_history:                                       0
                        max_diis:                                              4
                        --------------------------------------------------------
                        eps_scf:                                        1.00E-06
                        eps_scf_history:                                0.00E+00
                        eps_diis:                                       1.00E-01
                        eps_eigval:                                     1.00E-05
                        --------------------------------------------------------
                        level_shift [a.u.]:                             0.000000
                        added MOs                                        10    0
                        --------------------------------------------------------
                        Mixing method:                           DIRECT_P_MIXING
                        --------------------------------------------------------
                        No outer SCF

 PW_GRID| Information for grid number                                          1
 PW_GRID| Grid distributed over                                     8 processors
 PW_GRID| Real space group dimensions                                     8    1
 PW_GRID| the grid is blocked:                                                NO
 PW_GRID| Cutoff [a.u.]                                                    500.0
 PW_GRID| spherical cutoff:                                                   NO
 PW_GRID|   Bounds   1            -90      89                Points:         180
 PW_GRID|   Bounds   2            -90      89                Points:         180
 PW_GRID|   Bounds   3            -90      89                Points:         180
 PW_GRID| Volume element (a.u.^3)  0.7227E-03     Volume (a.u.^3)      4215.0078
 PW_GRID| Grid span                                                    FULLSPACE
 PW_GRID|   Distribution                         Average         Max         Min
 PW_GRID|   G-Vectors                           729000.0      729000      729000
 PW_GRID|   G-Rays                                4050.0        4050        4050
 PW_GRID|   Real Space Points                   729000.0      745200      712800

 PW_GRID| Information for grid number                                          2
 PW_GRID| Number of the reference grid                                         1
 PW_GRID| Grid distributed over                                     8 processors
 PW_GRID| Real space group dimensions                                     8    1
 PW_GRID| the grid is blocked:                                                NO
 PW_GRID| Cutoff [a.u.]                                                    166.7
 PW_GRID| spherical cutoff:                                                   NO
 PW_GRID|   Bounds   1            -48      47                Points:          96
 PW_GRID|   Bounds   2            -48      47                Points:          96
 PW_GRID|   Bounds   3            -48      47                Points:          96
 PW_GRID| Volume element (a.u.^3)  0.4764E-02     Volume (a.u.^3)      4215.0078
 PW_GRID| Grid span                                                    FULLSPACE
 PW_GRID|   Distribution                         Average         Max         Min
 PW_GRID|   G-Vectors                           110592.0      110688      110496
 PW_GRID|   G-Rays                                1152.0        1153        1151
 PW_GRID|   Real Space Points                   110592.0      110592      110592

 PW_GRID| Information for grid number                                          3
 PW_GRID| Number of the reference grid                                         1
 PW_GRID| Grid distributed over                                     8 processors
 PW_GRID| Real space group dimensions                                     8    1
 PW_GRID| the grid is blocked:                                                NO
 PW_GRID| Cutoff [a.u.]                                                     55.6
 PW_GRID| spherical cutoff:                                                   NO
 PW_GRID|   Bounds   1            -30      29                Points:          60
 PW_GRID|   Bounds   2            -30      29                Points:          60
 PW_GRID|   Bounds   3            -30      29                Points:          60
 PW_GRID| Volume element (a.u.^3)  0.1951E-01     Volume (a.u.^3)      4215.0078
 PW_GRID| Grid span                                                    FULLSPACE
 PW_GRID|   Distribution                         Average         Max         Min
 PW_GRID|   G-Vectors                            27000.0       27120       26940
 PW_GRID|   G-Rays                                 450.0         452         449
 PW_GRID|   Real Space Points                    27000.0       28800       25200

 PW_GRID| Information for grid number                                          4
 PW_GRID| Number of the reference grid                                         1
 PW_GRID| Grid distributed over                                     8 processors
 PW_GRID| Real space group dimensions                                     8    1
 PW_GRID| the grid is blocked:                                                NO
 PW_GRID| Cutoff [a.u.]                                                     18.5
 PW_GRID| spherical cutoff:                                                   NO
 PW_GRID|   Bounds   1            -16      15                Points:          32
 PW_GRID|   Bounds   2            -16      15                Points:          32
 PW_GRID|   Bounds   3            -16      15                Points:          32
 PW_GRID| Volume element (a.u.^3)  0.1286         Volume (a.u.^3)      4215.0078
 PW_GRID| Grid span                                                    FULLSPACE
 PW_GRID|   Distribution                         Average         Max         Min
 PW_GRID|   G-Vectors                             4096.0        4128        4064
 PW_GRID|   G-Rays                                 128.0         129         127
 PW_GRID|   Real Space Points                     4096.0        4096        4096

 POISSON| Solver                                                        PERIODIC
 POISSON| Periodicity                                                        XYZ

 RS_GRID| Information for grid number                                          1
 RS_GRID|   Bounds   1            -90      89                Points:         180
 RS_GRID|   Bounds   2            -90      89                Points:         180
 RS_GRID|   Bounds   3            -90      89                Points:         180
 RS_GRID| Real space distribution over                                  8 groups
 RS_GRID| Real space distribution along direction                              3
 RS_GRID| Border size                                                         23
 RS_GRID|   Distribution                         Average         Max         Min
 RS_GRID|   Planes                                  68.5          69          68

 RS_GRID| Information for grid number                                          2
 RS_GRID|   Bounds   1            -48      47                Points:          96
 RS_GRID|   Bounds   2            -48      47                Points:          96
 RS_GRID|   Bounds   3            -48      47                Points:          96
 RS_GRID| Real space fully replicated
 RS_GRID| Group size                                                           1

 RS_GRID| Information for grid number                                          3
 RS_GRID|   Bounds   1            -30      29                Points:          60
 RS_GRID|   Bounds   2            -30      29                Points:          60
 RS_GRID|   Bounds   3            -30      29                Points:          60
 RS_GRID| Real space fully replicated
 RS_GRID| Group size                                                           1

 RS_GRID| Information for grid number                                          4
 RS_GRID|   Bounds   1            -16      15                Points:          32
 RS_GRID|   Bounds   2            -16      15                Points:          32
 RS_GRID|   Bounds   3            -16      15                Points:          32
 RS_GRID| Real space fully replicated
 RS_GRID| Group size                                                           1

  HFX_INFO| Replica ID:                                                        1
  HFX_INFO| FRACTION:                                               1.0000000000
  HFX_INFO| Interaction Potential:                              TRUNCATED MIX_CL
  HFX_INFO| Cutoff Radius [angstrom]:                               4.2500000000
  HFX_INFO| EPS_SCHWARZ:                                                 1.0E-10
  HFX_INFO| EPS_SCHWARZ_FORCES                                           1.0E-06
  HFX_INFO| EPS_STORAGE_SCALING:                                         1.0E+00
  HFX_INFO| NBINS:                                                            64
  HFX_INFO| BLOCK_SIZE:                                                        2
  HFX_INFO| NUMBER_OF_SHELLS:                                               AUTO
  HFX_INFO| Number of periodic shells considered:                             -1
  HFX_INFO| Number of periodic cells considered:                             179


 Number of electrons:                                                        506
 Number of occupied orbitals:                                                253
 Number of molecular orbitals:                                               263

 Number of orbital functions:                                                976
 Number of independent orbital functions:                                    976

 Extrapolation method: initial_guess
  READ RESTART : WARNING : DIFFERENT natom, returning           64           7

 Atomic guess: The first density matrix is obtained in terms of atomic orbitals
               and electronic configurations assigned to each atomic kind

 Guess for atomic kind: Mg

 Electronic structure
    Total number of core electrons                                          2.00
    Total number of valence electrons                                      10.00
    Total number of electrons                                              12.00
    Multiplicity                                                   not specified
    S   [  2.00] 2.00  2.00
    P      6.00


 *******************************************************************************
                  Iteration          Convergence                     Energy [au]
 *******************************************************************************
                          1        0.763051                     -62.962613695390
                          2        0.267229                     -62.996282658486
                          3        0.591937E-02                 -63.002639720298
                          4        0.702405E-04                 -63.002646427653
                          5        0.103396E-05                 -63.002646429389
                          6        0.515945E-06                 -63.002646429389

 Energy components [Hartree]           Total Energy ::          -63.002646429389
                                        Band Energy ::          -16.042080367604
                                     Kinetic Energy ::           51.690322487476
                                   Potential Energy ::         -114.692968916865
                                      Virial (-V/T) ::            2.218848004762
                                        Core Energy ::         -104.316773923026
                                          XC Energy ::           -8.258509752522
                                     Coulomb Energy ::           49.572637246159
                       Total Pseudopotential Energy ::         -156.065010676511
                       Local Pseudopotential Energy ::         -155.050396037686
                    Nonlocal Pseudopotential Energy ::           -1.014614638825
                                        Confinement ::            0.579142660084

 Orbital energies  State     L     Occupation   Energy[a.u.]          Energy[eV]

                       1     0          2.000      -2.877479          -78.300173
                       2     0          2.000      -0.135425           -3.685102

                       1     1          6.000      -1.669379          -45.426110


 Total Electron Density at R=0:                                         0.000281

 Guess for atomic kind: Mg1

 Electronic structure
    Total number of core electrons                                          2.00
    Total number of valence electrons                                      10.00
    Total number of electrons                                              12.00
    Multiplicity                                                   not specified
    S   [  2.00] 2.00  2.00
    P      6.00


 *******************************************************************************
                  Iteration          Convergence                     Energy [au]
 *******************************************************************************
                          1        0.878121                     -62.946425078397
                          2        0.439891                     -62.992833180193
                          3        0.104869E-01                 -63.013981390941
                          4        0.134483E-03                 -63.014001327919
                          5        0.172914E-05                 -63.014001353563
                          6        0.208332E-07                 -63.014001353564

 Energy components [Hartree]           Total Energy ::          -63.014001353564
                                        Band Energy ::          -16.110741187134
                                     Kinetic Energy ::           51.612183625498
                                   Potential Energy ::         -114.626184979062
                                      Virial (-V/T) ::            2.220913298511
                                        Core Energy ::         -104.277015876418
                                          XC Energy ::           -8.249430436679
                                     Coulomb Energy ::           49.512444959533
                       Total Pseudopotential Energy ::         -155.948388520872
                       Local Pseudopotential Energy ::         -154.918038662157
                    Nonlocal Pseudopotential Energy ::           -1.030349858716
                                        Confinement ::            0.591890189565

 Orbital energies  State     L     Occupation   Energy[a.u.]          Energy[eV]

                       1     0          2.000      -2.885281          -78.512498
                       2     0          2.000      -0.137719           -3.747529

                       1     1          6.000      -1.677457          -45.645918


 Total Electron Density at R=0:                                         0.000424

 Guess for atomic kind: O

 Electronic structure
    Total number of core electrons                                          2.00
    Total number of valence electrons                                       6.00
    Total number of electrons                                               8.00
    Multiplicity                                                   not specified
    S   [  2.00] 2.00
    P      4.00


 *******************************************************************************
                  Iteration          Convergence                     Energy [au]
 *******************************************************************************
                          1        0.661461                     -15.576563080119
                          2        0.534590                     -15.593188232917
                          3        0.869454E-02                 -15.652745852041
                          4        0.365093E-03                 -15.652760334242
                          5        0.197340E-03                 -15.652760352367
                          6        0.136152E-03                 -15.652760356287
                          7        0.109119E-07                 -15.652760359849

 Energy components [Hartree]           Total Energy ::          -15.652760359849
                                        Band Energy ::           -2.964094566012
                                     Kinetic Energy ::           11.760508493335
                                   Potential Energy ::          -27.413268853184
                                      Virial (-V/T) ::            2.330959487740
                                        Core Energy ::          -26.164019707870
                                          XC Energy ::           -3.160708169958
                                     Coulomb Energy ::           13.671967517980
                       Total Pseudopotential Energy ::          -37.958826153740
                       Local Pseudopotential Energy ::          -39.257159095280
                    Nonlocal Pseudopotential Energy ::            1.298332941540
                                        Confinement ::            0.342979525346

 Orbital energies  State     L     Occupation   Energy[a.u.]          Energy[eV]

                       1     0          2.000      -0.857283          -23.327856

                       1     1          4.000      -0.312382           -8.500351


 Total Electron Density at R=0:                                         0.000594

 Guess for atomic kind: OX
 Re-scaling the density matrix to get the right number of electrons
                  # Electrons              Trace(P)               Scaling factor
                          506               506.023                        1.000


 SCF WAVEFUNCTION OPTIMIZATION

  Step     Update method      Time    Convergence         Total energy    Change
  ------------------------------------------------------------------------------

  HFX_MEM_INFO| Est. max. program size before HFX [MiB]:                     570
