&FCI NORB=   5,NELEC=   2,MS2= 1,
  ORBSYM=1,1,1,1,1,
  ISYM=0,
 /
 8.3362460515525802E-02   1   1   1   1
 1.9536766041677655E-04   1   1   1   2
 5.6453341771255106E-09   1   1   1   3
-1.7014410430632335E-05   1   1   1   4
-6.9781218267663100E-05   1   1   1   5
 8.0257348842960652E-02   1   1   2   2
-1.5990574154848890E-08   1   1   2   3
-6.5993928895259366E-05   1   1   2   4
 1.6190554494649140E-05   1   1   2   5
 5.9946075865047063E-02   1   1   3   3
-4.0579440369411542E-06   1   1   3   4
 9.5406763598904513E-07   1   1   3   5
 7.1353975771689671E-02   1   1   4   4
 5.9737221973657148E-04   1   1   4   5
 7.2919854448924945E-02   1   1   5   5
 8.1545026346919614E-03   1   2   1   2
-1.1073412376089717E-08   1   2   1   3
-4.2015186862671099E-06   1   2   1   4
 1.4294226777141583E-06   1   2   1   5
-1.9512961918185886E-04   1   2   2   2
-4.6106812749596216E-09   1   2   2   3
-1.1346656331327331E-06   1   2   2   4
-4.9226733921218384E-06   1   2   2   5
 3.1536697920873957E-08   1   2   3   3
-3.5120512287456375E-06   1   2   3   4
 3.7639050499262437E-06   1   2   3   5
 3.0935478940342189E-03   1   2   4   4
 6.7056224553211866E-03   1   2   4   5
-3.0936342083344513E-03   1   2   5   5
 5.2874304168800653E-03   1   3   1   3
-4.1298124306347108E-06   1   3   1   4
 9.0797742410838865E-07   1   3   1   5
 3.3267499771388789E-09   1   3   2   2
 7.5871202380361756E-09   1   3   2   3
-3.6387427595850806E-06   1   3   2   4
 3.8391804670501706E-06   1   3   2   5
-1.2456660985365499E-09   1   3   3   3
-2.2998263879864305E-07   1   3   3   4
-1.3064934620969297E-06   1   3   3   5
-1.2174559556221340E-10   1   3   4   4
 2.6158829849311788E-09   1   3   4   5
 4.9786649723621191E-10   1   3   5   5
 1.0522208530520497E-02   1   4   1   4
 1.9882310324534580E-02   1   4   1   5
-1.8179037828684033E-05   1   4   2   2
-3.5871703643918355E-06   1   4   2   3
 2.1738911372709217E-02   1   4   2   4
 5.4536151524915363E-04   1   4   2   5
-1.2160902096747334E-05   1   4   3   3
 2.1687804576607891E-09   1   4   3   4
-3.0605102562723640E-08   1   4   3   5
 1.5375583016229083E-05   1   4   4   4
 1.7545896545340846E-06   1   4   4   5
 1.1717640353365693E-05   1   4   5   5
 9.0563662992532976E-02   1   5   1   5
-7.4770850864807638E-05   1   5   2   2
 3.7419709525580520E-06   1   5   2   3
 8.8304640944230905E-02   1   5   2   4
-2.1740790406690330E-02   1   5   2   5
-5.0334783748092518E-05   1   5   3   3
-7.2811659934812253E-09   1   5   3   4
-9.5463004153830739E-08   1   5   3   5
 6.3394083685550294E-05   1   5   4   4
-1.5579066379969766E-06   1   5   4   5
 5.6464696570948241E-05   1   5   5   5
 8.3361669793481585E-02   2   2   2   2
-1.9074672867825044E-09   2   2   2   3
-7.2872513568710348E-05   2   2   2   4
 1.7801089260656241E-05   2   2   2   5
 5.9945612658650928E-02   2   2   3   3
-1.0898814228146349E-06   2   2   3   4
-5.5431511798658241E-06   2   2   3   5
 7.2918863922411564E-02   2   2   4   4
-5.9740444023664689E-04   2   2   4   5
 7.1355726350392529E-02   2   2   5   5
 5.2872822986922410E-03   2   3   2   3
-1.1784487759374012E-06   2   3   2   4
-5.6053142686636825E-06   2   3   2   5
-2.3548512724843440E-09   2   3   3   3
-1.6751441605637067E-06   2   3   3   4
 3.1294309131137708E-07   2   3   3   5
-8.4722224882850954E-09   2   3   4   4
-1.2066552596608571E-08   2   3   4   5
 1.7843969701803859E-08   2   3   5   5
 9.0576157086122239E-02   2   4   2   4
-1.9887359207636231E-02   2   4   2   5
-4.8370641856880443E-05   2   4   3   3
 1.7791408625885590E-09   2   4   3   4
-9.6535451227041893E-08   2   4   3   5
 6.6777892109792059E-05   2   4   4   4
-2.0150068416885386E-06   2   4   4   5
 5.6217130836075868E-05   2   4   5   5
 1.0524186156069671E-02   2   5   2   5
 1.1738413097280050E-05   2   5   3   3
 1.1020751776616531E-09   2   5   3   4
 1.4462545327589575E-08   2   5   3   5
-1.5083372277449710E-05   2   5   4   4
 3.2655635472337910E-07   2   5   4   5
-1.2654766192332159E-05   2   5   5   5
 4.9262590495487479E-02   3   3   3   3
-2.4962334369186645E-08   3   3   3   4
-1.4368634638226366E-08   3   3   3   5
 5.5440329579973517E-02   3   3   4   4
 2.6523592734975770E-07   3   3   4   5
 5.5441433556830344E-02   3   3   5   5
 6.0310396882717419E-03   3   4   3   4
-4.1342870003990167E-09   3   4   3   5
-9.7707040438103791E-07   3   4   4   4
 2.7908698070090998E-06   3   4   4   5
 1.8781160584653314E-05   3   4   5   5
 6.0309458131236017E-03   3   5   3   5
 2.7859146454985453E-06   3   5   4   4
 1.8792699256891765E-05   3   5   4   5
-1.2655392691195985E-05   3   5   5   5
 7.0619363785825159E-02   4   4   4   4
 3.4265601957148323E-03   4   4   4   5
 6.5484588183446754E-02   4   4   5   5
 8.5069756389240976E-03   4   5   4   5
-3.4258841757932768E-03   4   5   5   5
 7.0624026253908900E-02   5   5   5   5
-7.9027851565744531E-02   1   1   0   0
 9.8877112180699336E-05   1   2   0   0
-6.0110040575755836E-09   1   3   0   0
 5.0577871397685550E-05   1   4   0   0
 9.3958252833406688E-05   1   5   0   0
-1.5135964790374679E-01   2   2   0   0
 2.1244825656943778E-08   2   3   0   0
 1.3505491809657897E-04   2   4   0   0
-1.0206427958436867E-05   2   5   0   0
-7.5944099957364966E-02   3   3   0   0
 6.5105548249377116E-07   3   4   0   0
-3.6703509485070079E-07   3   5   0   0
-7.3093597447431505E-02   4   4   0   0
 1.7937507803400650E-02   4   5   0   0
-2.9943022127412733E-04   5   5   0   0
-3.4602729254548883E+01   0   0   0   0
