 DBCSR| CPU Multiplication driver                                           XSMM (U)
 DBCSR| Multrec recursion limit                                              512 (U)
 DBCSR| Multiplication stack size                                           1000 (D)
 DBCSR| Maximum elements for images                                    UNLIMITED (U)
 DBCSR| Multiplicative factor virtual images                                   1 (U)
 DBCSR| Use multiplication densification                                       T (D)
 DBCSR| Multiplication size stacks                                             3 (U)
 DBCSR| Use memory pool for CPU allocation                                     F (U)
 DBCSR| Number of 3D layers                                               SINGLE (U)
 DBCSR| Use MPI memory allocation                                              F (U)
 DBCSR| Use RMA algorithm                                                      F (U)
 DBCSR| Use Communication thread                                               T (U)
 DBCSR| Communication thread load                                             83 (D)
 DBCSR| MPI: My process id                                                     0
 DBCSR| MPI: Number of processes                                              16
 DBCSR| OMP: Current number of threads                                         2
 DBCSR| OMP: Max number of threads                                             2
 DBCSR| Split modifier for TAS multiplication algorithm                  1.0E+00 (U)


  **** **** ******  **  PROGRAM STARTED AT               2024-08-28 20:07:10.414
 ***** ** ***  *** **   PROGRAM STARTED ON                          ea43e71fd55f
 **    ****   ******    PROGRAM STARTED BY                             <unknown>
 ***** **    ** ** **   PROGRAM PROCESS ID                                   587
  **** **  *******  **  PROGRAM STARTED IN                                  /mnt

 CP2K| version string:                                       CP2K version 2024.2
 CP2K| source code revision number:                                  git:615b0eb
 CP2K| cp2kflags: omp libint fftw3 libxc libgrpp pexsi elpa parallel scalapack c
 CP2K|            osma quip xsmm plumed2 spglib libdftd4 sirius libvori libbqb l
 CP2K|            libtorch libvdwxc hdf5
 CP2K| is freely available from                            https://www.cp2k.org/
 CP2K| Program compiled at                          Mon Aug 12 15:42:01 UTC 2024
 CP2K| Program compiled on                                          28cbc1ee97e9
 CP2K| Program compiled for                                                local
 CP2K| Data directory path                                        /opt/cp2k/data
 CP2K| Input file name                                    Al111_active_space.inp

 GLOBAL| Force Environment number                                              1
 GLOBAL| Basis set file name                                        BASIS_MOLOPT
 GLOBAL| Potential file name                                           POTENTIAL
 GLOBAL| MM Potential file name                                     MM_POTENTIAL
 GLOBAL| Coordinate file name                                      __STD_INPUT__
 GLOBAL| Method name                                                        CP2K
 GLOBAL| Project name                                         Al111_active_space
 GLOBAL| Run type                                                         ENERGY
 GLOBAL| FFT library                                                       FFTW3
 GLOBAL| Diagonalization library                                            ELPA
 GLOBAL| DGEMM library                                                      BLAS
 GLOBAL| Minimum number of eigenvectors for ELPA usage                        16
 GLOBAL| Orthonormality check for eigenvectors                          DISABLED
 GLOBAL| Matrix multiplication library                                     COSMA
 GLOBAL| All-to-all communication in single precision                          F
 GLOBAL| FFTs using library dependent lengths                                  F
 GLOBAL| Grid backend                                                       AUTO
 GLOBAL| Global print level                                               MEDIUM
 GLOBAL| MPI I/O enabled                                                       T
 GLOBAL| Total number of message passing processes                            16
 GLOBAL| Number of threads for this process                                    2
 GLOBAL| This output is from process                                           0
 GLOBAL| Stack size for threads created by OpenMP (OMP_STACKSIZE)            16M
 GLOBAL| CPU model name                                  AMD EPYC 7R13 Processor
 GLOBAL| CPUID                                                              1002
 GLOBAL| Compiled for CPUID                                                    0

 *** HINT in environment.F:921 :: The compiler target flags (generic) used ***
 *** to build this binary cannot exploit all extensions of this CPU model  ***
 *** (x86_avx2). Consider compiler target flags as part of FCFLAGS and     ***
 *** CFLAGS (ARCH file).                                                   ***


 MEMORY| system memory details [Kb]
 MEMORY|                        rank 0           min           max       average
 MEMORY| MemTotal            387819260     387819260     387819260     387819260
 MEMORY| MemFree             382367848     382367848     382367848     382367848
 MEMORY| Buffers                 95000         95000         95000         95000
 MEMORY| Cached                1258764       1258764       1258764       1258764
 MEMORY| Slab                   643388        643388        643388        643388
 MEMORY| SReclaimable           178400        178400        178400        178400
 MEMORY| MemLikelyFree       383900012     383900012     383900012     383900012


 *** Fundamental physical constants (SI units) ***

 *** Literature: B. J. Mohr and B. N. Taylor,
 ***             CODATA recommended values of the fundamental physical
 ***             constants: 2006, Web Version 5.1
 ***             http://physics.nist.gov/constants

 Speed of light in vacuum [m/s]                             2.99792458000000E+08
 Magnetic constant or permeability of vacuum [N/A**2]       1.25663706143592E-06
 Electric constant or permittivity of vacuum [F/m]          8.85418781762039E-12
 Planck constant (h) [J*s]                                  6.62606896000000E-34
 Planck constant (h-bar) [J*s]                              1.05457162825177E-34
 Elementary charge [C]                                      1.60217648700000E-19
 Electron mass [kg]                                         9.10938215000000E-31
 Electron g factor [ ]                                     -2.00231930436220E+00
 Proton mass [kg]                                           1.67262163700000E-27
 Fine-structure constant                                    7.29735253760000E-03
 Rydberg constant [1/m]                                     1.09737315685270E+07
 Avogadro constant [1/mol]                                  6.02214179000000E+23
 Boltzmann constant [J/K]                                   1.38065040000000E-23
 Atomic mass unit [kg]                                      1.66053878200000E-27
 Bohr radius [m]                                            5.29177208590000E-11

 *** Conversion factors ***

 [u] -> [a.u.]                                              1.82288848426455E+03
 [Angstrom] -> [Bohr] = [a.u.]                              1.88972613288564E+00
 [a.u.] = [Bohr] -> [Angstrom]                              5.29177208590000E-01
 [a.u.] -> [s]                                              2.41888432650478E-17
 [a.u.] -> [fs]                                             2.41888432650478E-02
 [a.u.] -> [J]                                              4.35974393937059E-18
 [a.u.] -> [N]                                              8.23872205491840E-08
 [a.u.] -> [K]                                              3.15774647902944E+05
 [a.u.] -> [kJ/mol]                                         2.62549961709828E+03
 [a.u.] -> [kcal/mol]                                       6.27509468713739E+02
 [a.u.] -> [Pa]                                             2.94210107994716E+13
 [a.u.] -> [bar]                                            2.94210107994716E+08
 [a.u.] -> [atm]                                            2.90362800883016E+08
 [a.u.] -> [eV]                                             2.72113838565563E+01
 [a.u.] -> [Hz]                                             6.57968392072181E+15
 [a.u.] -> [1/cm] (wave numbers)                            2.19474631370540E+05
 [a.u./Bohr**2] -> [1/cm]                                   5.14048714338585E+03
 

 CELL_TOP| Volume [angstrom^3]:                                       555.818898
 CELL_TOP| Vector a [angstrom     5.665     0.000     0.000   |a| =     5.664823
 CELL_TOP| Vector b [angstrom     2.832     4.906     0.000   |b| =     5.664823
 CELL_TOP| Vector c [angstrom     0.000     0.000    20.000   |c| =    20.000000
 CELL_TOP| Angle (b,c), alpha [degree]:                                90.000000
 CELL_TOP| Angle (a,c), beta  [degree]:                                90.000000
 CELL_TOP| Angle (a,b), gamma [degree]:                                60.000001
 CELL_TOP| Numerically orthorhombic:                                          NO
 CELL_TOP| Periodicity                                                       XYZ

 GENERATE|  Preliminary Number of Bonds generated:                             0
 GENERATE|  Achieved consistency in connectivity generation.

 CELL| Volume [angstrom^3]:                                           555.818898
 CELL| Vector a [angstrom]:       5.665     0.000     0.000   |a| =     5.664823
 CELL| Vector b [angstrom]:       2.832     4.906     0.000   |b| =     5.664823
 CELL| Vector c [angstrom]:       0.000     0.000    20.000   |c| =    20.000000
 CELL| Angle (b,c), alpha [degree]:                                    90.000000
 CELL| Angle (a,c), beta  [degree]:                                    90.000000
 CELL| Angle (a,b), gamma [degree]:                                    60.000001
 CELL| Numerically orthorhombic:                                              NO
 CELL| Periodicity                                                           XYZ

 CELL_REF| Volume [angstrom^3]:                                       555.818898
 CELL_REF| Vector a [angstrom     5.665     0.000     0.000   |a| =     5.664823
 CELL_REF| Vector b [angstrom     2.832     4.906     0.000   |b| =     5.664823
 CELL_REF| Vector c [angstrom     0.000     0.000    20.000   |c| =    20.000000
 CELL_REF| Angle (b,c), alpha [degree]:                                90.000000
 CELL_REF| Angle (a,c), beta  [degree]:                                90.000000
 CELL_REF| Angle (a,b), gamma [degree]:                                60.000001
 CELL_REF| Numerically orthorhombic:                                          NO
 CELL_REF| Periodicity                                                       XYZ

 *******************************************************************************
 *******************************************************************************
 **                                                                           **
 **     #####                         ##              ##                      **
 **    ##   ##            ##          ##              ##                      **
 **   ##     ##                       ##            ######                    **
 **   ##     ##  ##   ##  ##   #####  ##  ##   ####   ##    #####    #####    **
 **   ##     ##  ##   ##  ##  ##      ## ##   ##      ##   ##   ##  ##   ##   **
 **   ##  ## ##  ##   ##  ##  ##      ####     ###    ##   ######   ######    **
 **    ##  ###   ##   ##  ##  ##      ## ##      ##   ##   ##       ##        **
 **     #######   #####   ##   #####  ##  ##  ####    ##    #####   ##        **
 **           ##                                                    ##        **
 **                                                                           **
 **                                                ... make the atoms dance   **
 **                                                                           **
 **            Copyright (C) by CP2K developers group (2000-2024)             **
 **                      J. Chem. Phys. 152, 194103 (2020)                    **
 **                                                                           **
 *******************************************************************************

 DFT| Spin restricted Kohn-Sham (RKS) calculation                            RKS
 DFT| Multiplicity                                                             1
 DFT| Number of spin states                                                    1
 DFT| Charge                                                                   0
 DFT| Self-interaction correction (SIC)                                       NO
 DFT| Cutoffs: density                                              1.000000E-10
 DFT|          gradient                                             1.000000E-10
 DFT|          tau                                                  1.000000E-10
 DFT|          cutoff_smoothing_range                               0.000000E+00
 DFT| XC density smoothing                                                  NONE
 DFT| XC derivatives                                                          PW

 FUNCTIONAL| PADE:
 FUNCTIONAL| S. Goedecker, M. Teter and J. Hutter, Phys. Rev. B 54, 1703 (1996) 


 QS| Method:                                                                 GPW
 QS| Density plane wave grid type                        NON-SPHERICAL FULLSPACE
 QS| Number of grid levels:                                                    5
 QS| Density cutoff [a.u.]:                                                200.0
 QS| Multi grid cutoff [a.u.]: 1) grid level                               200.0
 QS|                           2) grid level                                66.7
 QS|                           3) grid level                                22.2
 QS|                           4) grid level                                 7.4
 QS|                           5) grid level                                 2.5
 QS| Grid level progression factor:                                          3.0
 QS| Relative density cutoff [a.u.]:                                        25.0
 QS| Interaction thresholds: eps_pgf_orb:                                3.2E-03
 QS|                         eps_filter_matrix:                          0.0E+00
 QS|                         eps_core_charge:                            1.0E-07
 QS|                         eps_rho_gspace:                             1.0E-05
 QS|                         eps_rho_rspace:                             1.0E-05
 QS|                         eps_gvg_rspace:                             3.2E-03
 QS|                         eps_ppl:                                    1.0E-02
 QS|                         eps_ppnl:                                   3.2E-05


 ATOMIC KIND INFORMATION

  1. Atomic kind: Al                                    Number of atoms:      16

     Orbital Basis Set                                        DZVP-MOLOPT-SR-GTH

       Number of orbital shell sets:                                           1
       Number of orbital shells:                                               5
       Number of primitive Cartesian functions:                                4
       Number of Cartesian basis functions:                                   14
       Number of spherical basis functions:                                   13
       Norm type:                                                              2

       Normalised Cartesian orbitals:

                        Set   Shell   Orbital            Exponent    Coefficient

                          1       1    2s                1.212902       0.147703
                                                         0.454181       0.176942
                                                         0.242419      -0.255412
                                                         0.078268      -0.047918

                          1       2    3s                1.212902      -0.205401
                                                         0.454181      -0.282784
                                                         0.242419       0.451246
                                                         0.078268      -0.188270

                          1       3    3px               1.212902       0.054477
                                                         0.454181       0.028713
                                                         0.242419      -0.164201
                                                         0.078268      -0.027375
                          1       3    3py               1.212902       0.054477
                                                         0.454181       0.028713
                                                         0.242419      -0.164201
                                                         0.078268      -0.027375
                          1       3    3pz               1.212902       0.054477
                                                         0.454181       0.028713
                                                         0.242419      -0.164201
                                                         0.078268      -0.027375

                          1       4    4px               1.212902      -0.161995
                                                         0.454181       0.034524
                                                         0.242419       0.284421
                                                         0.078268      -0.077718
                          1       4    4py               1.212902      -0.161995
                                                         0.454181       0.034524
                                                         0.242419       0.284421
                                                         0.078268      -0.077718
                          1       4    4pz               1.212902      -0.161995
                                                         0.454181       0.034524
                                                         0.242419       0.284421
                                                         0.078268      -0.077718

                          1       5    4dx2              1.212902       0.283929
                                                         0.454181       0.086552
                                                         0.242419       0.083045
                                                         0.078268       0.004803
                          1       5    4dxy              1.212902       0.491779
                                                         0.454181       0.149912
                                                         0.242419       0.143839
                                                         0.078268       0.008319
                          1       5    4dxz              1.212902       0.491779
                                                         0.454181       0.149912
                                                         0.242419       0.143839
                                                         0.078268       0.008319
                          1       5    4dy2              1.212902       0.283929
                                                         0.454181       0.086552
                                                         0.242419       0.083045
                                                         0.078268       0.004803
                          1       5    4dyz              1.212902       0.491779
                                                         0.454181       0.149912
                                                         0.242419       0.143839
                                                         0.078268       0.008319
                          1       5    4dz2              1.212902       0.283929
                                                         0.454181       0.086552
                                                         0.242419       0.083045
                                                         0.078268       0.004803

       Atomic covalent radius [Angstrom]:                                  1.180

       Atomic van der Waals radius [Angstrom]:                             1.840

     GTH Potential information for                                    GTH-PBE-q3

       Description:                       Goedecker-Teter-Hutter pseudopotential
                                           Goedecker et al., PRB 54, 1703 (1996)
                                          Hartwigsen et al., PRB 58, 3641 (1998)
                                                      Krack, TCA 114, 145 (2005)

       Gaussian exponent of the core charge distribution:               2.469136
       Electronic configuration (s p d ...):                               2   1

       Parameters of the local part of the GTH pseudopotential:

                          rloc        C1          C2          C3          C4
                        0.450000   -7.554761

       Parameters of the non-local part of the GTH pseudopotential:

                   l      r(l)      h(i,j,l)

                   0    0.487435    6.959938   -1.888836
                                   -1.888836    2.438477
                   1    0.562189    1.865299


 MOLECULE KIND INFORMATION


 All atoms are their own molecule, skipping detailed information


 TOTAL NUMBERS AND MAXIMUM NUMBERS

  Total number of            - Atomic kinds:                                   1
                             - Atoms:                                         16
                             - Shell sets:                                    16
                             - Shells:                                        80
                             - Primitive Cartesian functions:                 64
                             - Cartesian basis functions:                    224
                             - Spherical basis functions:                    208

  Maximum angular momentum of- Orbital basis functions:                        2
                             - Local part of the GTH pseudopotential:          0
                             - Non-local part of the GTH pseudopotential:      2


 MODULE QUICKSTEP: ATOMIC COORDINATES IN ANGSTROM

   Atom Kind Element         X             Y             Z       Z(eff)     Mass
      1    1 Al   13      0.000000     -0.000000      9.974396   3.0000  26.9815
      2    1 Al   13      2.832411     -0.000000      9.974396   3.0000  26.9815
      3    1 Al   13      1.416206      2.452940      9.974396   3.0000  26.9815
      4    1 Al   13      4.248617      2.452940      9.974396   3.0000  26.9815
      5    1 Al   13      1.416206      0.817647     12.306677   3.0000  26.9815
      6    1 Al   13      4.248617      0.817647     12.306677   3.0000  26.9815
      7    1 Al   13      2.832411      3.270587     12.306677   3.0000  26.9815
      8    1 Al   13      5.664823      3.270587     12.306677   3.0000  26.9815
      9    1 Al   13     -0.000001      1.635294     14.625497   3.0000  26.9815
     10    1 Al   13      2.832411      1.635294     14.625494   3.0000  26.9815
     11    1 Al   13      1.416206      4.088232     14.625498   3.0000  26.9815
     12    1 Al   13      4.248617      4.088233     14.625494   3.0000  26.9815
     13    1 Al   13     -0.000004     -0.000002     16.959567   3.0000  26.9815
     14    1 Al   13      2.832416     -0.000000     16.959568   3.0000  26.9815
     15    1 Al   13      1.416204      2.452942     16.959567   3.0000  26.9815
     16    1 Al   13      4.248619      2.452942     16.959567   3.0000  26.9815



 SCF PARAMETERS         Density guess:                                    ATOMIC
                        --------------------------------------------------------
                        max_scf:                                             200
                        max_scf_history:                                       0
                        max_diis:                                              4
                        --------------------------------------------------------
                        eps_scf:                                        1.00E-04
                        eps_scf_history:                                0.00E+00
                        eps_diis:                                       1.00E-01
                        eps_eigval:                                     1.00E-05
                        --------------------------------------------------------
                        level_shift [a.u.]:                             0.000000
                        added MOs                                        20    0
                        --------------------------------------------------------
                        Mixing method:                            BROYDEN_MIXING
                                                charge density mixing in g-space
                        --------------------------------------------------------
                        Smear method:                                FERMI_DIRAC
                        Electronic temperature [K]:                        300.0
                        Electronic temperature [a.u.]:                  9.50E-04
                        Accuracy threshold:                             1.00E-10
                        --------------------------------------------------------
                        No outer SCF

 PW_GRID| Information for grid number                                          1
 PW_GRID| Grid distributed over                                    16 processors
 PW_GRID| Real space group dimensions                                    16    1
 PW_GRID| the grid is blocked:                                                NO
 PW_GRID| Cutoff [a.u.]                                                    200.0
 PW_GRID| spherical cutoff:                                                   NO
 PW_GRID|   Bounds   1            -36      35                Points:          72
 PW_GRID|   Bounds   2            -36      35                Points:          72
 PW_GRID|   Bounds   3           -121     121                Points:         243
 PW_GRID| Volume element (a.u.^3)  0.2978E-02     Volume (a.u.^3)      3750.8519
 PW_GRID| Grid span                                                    FULLSPACE
 PW_GRID|   Distribution                         Average         Max         Min
 PW_GRID|   G-Vectors                            78732.0       78768       78696
 PW_GRID|   G-Rays                                1093.5        1094        1093
 PW_GRID|   Real Space Points                    78732.0       87480       69984

 PW_GRID| Information for grid number                                          2
 PW_GRID| Number of the reference grid                                         1
 PW_GRID| Grid distributed over                                    16 processors
 PW_GRID| Real space group dimensions                                    16    1
 PW_GRID| the grid is blocked:                                                NO
 PW_GRID| Cutoff [a.u.]                                                     66.7
 PW_GRID| spherical cutoff:                                                   NO
 PW_GRID|   Bounds   1            -20      19                Points:          40
 PW_GRID|   Bounds   2            -20      19                Points:          40
 PW_GRID|   Bounds   3            -72      71                Points:         144
 PW_GRID| Volume element (a.u.^3)  0.1628E-01     Volume (a.u.^3)      3750.8519
 PW_GRID| Grid span                                                    FULLSPACE
 PW_GRID|   Distribution                         Average         Max         Min
 PW_GRID|   G-Vectors                            14400.0       14680       14200
 PW_GRID|   G-Rays                                 360.0         367         355
 PW_GRID|   Real Space Points                    14400.0       17280       11520

 PW_GRID| Information for grid number                                          3
 PW_GRID| Number of the reference grid                                         1
 PW_GRID| Grid distributed over                                    16 processors
 PW_GRID| Real space group dimensions                                    16    1
 PW_GRID| the grid is blocked:                                                NO
 PW_GRID| Cutoff [a.u.]                                                     22.2
 PW_GRID| spherical cutoff:                                                   NO
 PW_GRID|   Bounds   1            -12      11                Points:          24
 PW_GRID|   Bounds   2            -12      11                Points:          24
 PW_GRID|   Bounds   3            -40      40                Points:          81
 PW_GRID| Volume element (a.u.^3)  0.8039E-01     Volume (a.u.^3)      3750.8519
 PW_GRID| Grid span                                                    FULLSPACE
 PW_GRID|   Distribution                         Average         Max         Min
 PW_GRID|   G-Vectors                             2916.0        3048        2808
 PW_GRID|   G-Rays                                 121.5         127         117
 PW_GRID|   Real Space Points                     2916.0        3888        1944

 PW_GRID| Information for grid number                                          4
 PW_GRID| Number of the reference grid                                         1
 PW_GRID| Grid distributed over                                    16 processors
 PW_GRID| Real space group dimensions                                     4    4
 PW_GRID| the grid is blocked:                                                NO
 PW_GRID| Cutoff [a.u.]                                                      7.4
 PW_GRID| spherical cutoff:                                                   NO
 PW_GRID|   Bounds   1             -7       7                Points:          15
 PW_GRID|   Bounds   2             -7       7                Points:          15
 PW_GRID|   Bounds   3            -24      23                Points:          48
 PW_GRID| Volume element (a.u.^3)  0.3473         Volume (a.u.^3)      3750.8519
 PW_GRID| Grid span                                                    FULLSPACE
 PW_GRID|   Distribution                         Average         Max         Min
 PW_GRID|   G-Vectors                              675.0         705         645
 PW_GRID|   G-Rays                                  45.0          47          43
 PW_GRID|   Real Space Points                      675.0         768         432

 PW_GRID| Information for grid number                                          5
 PW_GRID| Number of the reference grid                                         1
 PW_GRID| Grid distributed over                                    16 processors
 PW_GRID| Real space group dimensions                                     4    4
 PW_GRID| the grid is blocked:                                                NO
 PW_GRID| Cutoff [a.u.]                                                      2.5
 PW_GRID| spherical cutoff:                                                   NO
 PW_GRID|   Bounds   1             -4       3                Points:           8
 PW_GRID|   Bounds   2             -4       3                Points:           8
 PW_GRID|   Bounds   3            -13      13                Points:          27
 PW_GRID| Volume element (a.u.^3)   2.171         Volume (a.u.^3)      3750.8519
 PW_GRID| Grid span                                                    FULLSPACE
 PW_GRID|   Distribution                         Average         Max         Min
 PW_GRID|   G-Vectors                              108.0         152          88
 PW_GRID|   G-Rays                                  13.5          19          11
 PW_GRID|   Real Space Points                      108.0         108         108

 POISSON| Solver                                                        PERIODIC
 POISSON| Periodicity                                                        XYZ

 RS_GRID| Information for grid number                                          1
 RS_GRID|   Bounds   1            -36      35                Points:          72
 RS_GRID|   Bounds   2            -36      35                Points:          72
 RS_GRID|   Bounds   3           -121     121                Points:         243
 RS_GRID| Real space distribution over                                 16 groups
 RS_GRID| Real space distribution along direction                              3
 RS_GRID| Border size                                                         26
 RS_GRID|   Distribution                         Average         Max         Min
 RS_GRID|   Planes                                  67.2          68          67

 RS_GRID| Information for grid number                                          2
 RS_GRID|   Bounds   1            -20      19                Points:          40
 RS_GRID|   Bounds   2            -20      19                Points:          40
 RS_GRID|   Bounds   3            -72      71                Points:         144
 RS_GRID| Real space distribution over                                 16 groups
 RS_GRID| Real space distribution along direction                              3
 RS_GRID| Border size                                                         30
 RS_GRID|   Distribution                         Average         Max         Min
 RS_GRID|   Planes                                  69.0          69          69

 RS_GRID| Information for grid number                                          3
 RS_GRID|   Bounds   1            -12      11                Points:          24
 RS_GRID|   Bounds   2            -12      11                Points:          24
 RS_GRID|   Bounds   3            -40      40                Points:          81
 RS_GRID| Real space fully replicated
 RS_GRID| Group size                                                           1

 RS_GRID| Information for grid number                                          4
 RS_GRID|   Bounds   1             -7       7                Points:          15
 RS_GRID|   Bounds   2             -7       7                Points:          15
 RS_GRID|   Bounds   3            -24      23                Points:          48
 RS_GRID| Real space fully replicated
 RS_GRID| Group size                                                           1

 RS_GRID| Information for grid number                                          5
 RS_GRID|   Bounds   1             -4       3                Points:           8
 RS_GRID|   Bounds   2             -4       3                Points:           8
 RS_GRID|   Bounds   3            -13      13                Points:          27
 RS_GRID| Real space fully replicated
 RS_GRID| Group size                                                           1

 Number of electrons:                                                         48
 Number of occupied orbitals:                                                 24
 Number of molecular orbitals:                                                44

 Number of orbital functions:                                                208
 Number of independent orbital functions:                                    208

 Extrapolation method: initial_guess

 Atomic guess: The first density matrix is obtained in terms of atomic orbitals
               and electronic configurations assigned to each atomic kind

 Guess for atomic kind: Al

 Electronic structure
    Total number of core electrons                                         10.00
    Total number of valence electrons                                       3.00
    Total number of electrons                                              13.00
    Multiplicity                                                   not specified
    S   [  2.00  2.00] 2.00
    P   [  6.00] 1.00


 *******************************************************************************
                  Iteration          Convergence                     Energy [au]
 *******************************************************************************
                          1        0.305915E-01                  -1.859601069933
                          2        0.524000E-02                  -1.861110285590
                          3        0.579159E-05                  -1.861153364112
                          4        0.938920E-07                  -1.861153364138

 Energy components [Hartree]           Total Energy ::           -1.861153364138
                                        Band Energy ::           -0.553286143720
                                     Kinetic Energy ::            0.692453408885
                                   Potential Energy ::           -2.553606773023
                                      Virial (-V/T) ::            3.687766917250
                                        Core Energy ::           -2.745654507139
                                          XC Energy ::           -0.605922783649
                                     Coulomb Energy ::            1.490423926650
                       Total Pseudopotential Energy ::           -3.492083735852
                       Local Pseudopotential Energy ::           -3.961694608532
                    Nonlocal Pseudopotential Energy ::            0.469610872680
                                        Confinement ::            0.539758198286

 Orbital energies  State     L     Occupation   Energy[a.u.]          Energy[eV]

                       1     0          2.000      -0.248205           -6.754004

                       1     1          1.000      -0.056876           -1.547674


 Total Electron Density at R=0:                                         0.000121
 Re-scaling the density matrix to get the right number of electrons
                  # Electrons              Trace(P)               Scaling factor
                           48                47.857                        1.003


 SCF WAVEFUNCTION OPTIMIZATION

  Step     Update method      Time    Convergence         Total energy    Change
  ------------------------------------------------------------------------------

 *** WARNING in fm/cp_fm_elpa.F:522 :: Setting real_kernel for ELPA failed ***

     1 NoMix/Diag. 0.30E+00    0.1   177.88873526       -35.0305074212 -3.50E+01

 *** WARNING in fm/cp_fm_elpa.F:522 :: Setting real_kernel for ELPA failed ***

     2 Broy./Diag. 0.30E+00    0.1     2.59632337       -35.1546571132 -1.24E-01

 *** WARNING in fm/cp_fm_elpa.F:522 :: Setting real_kernel for ELPA failed ***

     3 Broy./Diag. 0.30E+00    0.1     0.41536817       -34.9582856318  1.96E-01

 *** WARNING in fm/cp_fm_elpa.F:522 :: Setting real_kernel for ELPA failed ***

     4 Broy./Diag. 0.30E+00    0.1     0.28132396       -34.6181288382  3.40E-01

 *** WARNING in fm/cp_fm_elpa.F:522 :: Setting real_kernel for ELPA failed ***

     5 Broy./Diag. 0.30E+00    0.1     0.13300265       -34.5801386585  3.80E-02

 *** WARNING in fm/cp_fm_elpa.F:522 :: Setting real_kernel for ELPA failed ***

     6 Broy./Diag. 0.30E+00    0.1     0.04670273       -34.5523274154  2.78E-02

 *** WARNING in fm/cp_fm_elpa.F:522 :: Setting real_kernel for ELPA failed ***

     7 Broy./Diag. 0.30E+00    0.1     0.07161661       -34.5664104656 -1.41E-02

 *** WARNING in fm/cp_fm_elpa.F:522 :: Setting real_kernel for ELPA failed ***

     8 Broy./Diag. 0.30E+00    0.1     0.05454286       -34.6358984442 -6.95E-02

 *** WARNING in fm/cp_fm_elpa.F:522 :: Setting real_kernel for ELPA failed ***

     9 Broy./Diag. 0.30E+00    0.1     0.08287070       -34.6708261988 -3.49E-02

 *** WARNING in fm/cp_fm_elpa.F:522 :: Setting real_kernel for ELPA failed ***

    10 Broy./Diag. 0.30E+00    0.1     0.02012419       -34.6835470467 -1.27E-02

 *** WARNING in fm/cp_fm_elpa.F:522 :: Setting real_kernel for ELPA failed ***

    11 Broy./Diag. 0.30E+00    0.1     0.01225769       -34.6855828658 -2.04E-03

 *** WARNING in fm/cp_fm_elpa.F:522 :: Setting real_kernel for ELPA failed ***

    12 Broy./Diag. 0.30E+00    0.1     0.00406135       -34.6845136239  1.07E-03

 *** WARNING in fm/cp_fm_elpa.F:522 :: Setting real_kernel for ELPA failed ***

    13 Broy./Diag. 0.30E+00    0.1     0.00156826       -34.6803011299  4.21E-03

 *** WARNING in fm/cp_fm_elpa.F:522 :: Setting real_kernel for ELPA failed ***

    14 Broy./Diag. 0.30E+00    0.1     0.00115576       -34.6786498534  1.65E-03

 *** WARNING in fm/cp_fm_elpa.F:522 :: Setting real_kernel for ELPA failed ***

    15 Broy./Diag. 0.30E+00    0.1     0.00018397       -34.6787690800 -1.19E-04

 *** WARNING in fm/cp_fm_elpa.F:522 :: Setting real_kernel for ELPA failed ***

    16 Broy./Diag. 0.30E+00    0.1     0.00017576       -34.6791423516 -3.73E-04

 *** WARNING in fm/cp_fm_elpa.F:522 :: Setting real_kernel for ELPA failed ***

    17 Broy./Diag. 0.30E+00    0.1     0.00007650       -34.6793002762 -1.58E-04

  *** SCF run converged in    17 steps ***


  Electronic density on regular grids:        -47.9928195183        0.0071804817
  Core density on regular grids:               47.9990794551       -0.0009205449
  Total charge density on r-space grids:        0.0062599368
  Total charge density g-space grids:           0.0062599368

  Overlap energy of the core charge distribution:               0.00000000000000
  Self energy of the core charge distribution:                -90.27033336764102
  Core Hamiltonian energy:                                     17.16792999521514
  Hartree energy:                                              51.00038812393601
  Exchange-correlation energy:                                -12.57365673214973
  Electronic entropic energy:                                  -0.00362829558763
  Fermi energy:                                                 0.00253616665938

  Total energy:                                               -34.67930027621899

 MO| EIGENVALUES AND OCCUPATION NUMBERS
 MO|
 MO|  Index      Eigenvalue [a.u.]        Eigenvalue [eV]             Occupation
 MO|      1              -0.380659             -10.358248               2.000000
 MO|      2              -0.316188              -8.603922               2.000000
 MO|      3              -0.286280              -7.790088               2.000000
 MO|      4              -0.273725              -7.448449               2.000000
 MO|      5              -0.227536              -6.191559               2.000000
 MO|      6              -0.155327              -4.226651               2.000000
 MO|      7              -0.098153              -2.670876               2.000000
 MO|      8              -0.098151              -2.670836               2.000000
 MO|      9              -0.098151              -2.670823               2.000000
 MO|     10              -0.095594              -2.601254               2.000000
 MO|     11              -0.095592              -2.601181               2.000000
 MO|     12              -0.095590              -2.601135               2.000000
 MO|     13              -0.070038              -1.905818               2.000000
 MO|     14              -0.070036              -1.905767               2.000000
 MO|     15              -0.070029              -1.905589               2.000000
 MO|     16              -0.065934              -1.794162               2.000000
 MO|     17              -0.065932              -1.794105               2.000000
 MO|     18              -0.065930              -1.794037               2.000000
 MO|     19              -0.063393              -1.725017               2.000000
 MO|     20              -0.017400              -0.473489               2.000000
 MO|     21              -0.017400              -0.473470               2.000000
 MO|     22              -0.017399              -0.473447               2.000000
 MO|     23               0.001874               0.050987               1.335164
 MO|     24               0.001879               0.051127               1.332750
 MO|     25               0.001880               0.051166               1.332086
 MO|     26               0.038711               1.053373               0.000000
 MO|     27               0.059779               1.626672               0.000000
 MO|     28               0.059779               1.626677               0.000000
 MO|     29               0.059786               1.626861               0.000000
 MO|     30               0.071763               1.952766               0.000000
 MO|     31               0.071766               1.952863               0.000000
 MO|     32               0.071772               1.953006               0.000000
 MO|     33               0.136561               3.716002               0.000000
 MO|     34               0.145012               3.945983               0.000000
 MO|     35               0.145017               3.946119               0.000000
 MO|     36               0.145021               3.946216               0.000000
 MO|     37               0.160426               4.365409               0.000000
 MO|     38               0.160434               4.365634               0.000000
 MO|     39               0.160439               4.365760               0.000000
 MO|     40               0.215515               5.864466               0.000000
 MO|     41               0.246585               6.709919               0.000000
 MO|     42               0.246607               6.710517               0.000000
 MO|     43               0.246667               6.712144               0.000000
 MO|     44               0.283593               7.716967               0.000000
 MO| Sum:                                                              48.000000
 MO| E(Fermi):            0.002536 a.u.          0.069013 eV


 !-----------------------------------------------------------------------------!
                     Mulliken Population Analysis

 #  Atom  Element  Kind  Atomic population                           Net charge
       1     Al       1          2.876210                              0.123790
       2     Al       1          2.876202                              0.123798
       3     Al       1          2.876219                              0.123781
       4     Al       1          2.876220                              0.123780
       5     Al       1          3.124527                             -0.124527
       6     Al       1          3.124526                             -0.124526
       7     Al       1          3.124509                             -0.124509
       8     Al       1          3.124505                             -0.124505
       9     Al       1          3.123476                             -0.123476
      10     Al       1          3.123477                             -0.123477
      11     Al       1          3.123499                             -0.123499
      12     Al       1          3.123497                             -0.123497
      13     Al       1          2.875784                              0.124216
      14     Al       1          2.875782                              0.124218
      15     Al       1          2.875785                              0.124215
      16     Al       1          2.875783                              0.124217
 # Total charge                             48.000000                  0.000000

 !-----------------------------------------------------------------------------!

 !-----------------------------------------------------------------------------!
                           Hirshfeld Charges

  #Atom  Element  Kind  Ref Charge     Population                    Net charge
      1       Al     1       3.000          3.011                        -0.011
      2       Al     1       3.000          3.011                        -0.011
      3       Al     1       3.000          3.011                        -0.011
      4       Al     1       3.000          3.011                        -0.011
      5       Al     1       3.000          2.983                         0.017
      6       Al     1       3.000          2.983                         0.017
      7       Al     1       3.000          2.983                         0.017
      8       Al     1       3.000          2.983                         0.017
      9       Al     1       3.000          2.983                         0.017
     10       Al     1       3.000          2.983                         0.017
     11       Al     1       3.000          2.983                         0.017
     12       Al     1       3.000          2.983                         0.017
     13       Al     1       3.000          3.011                        -0.011
     14       Al     1       3.000          3.011                        -0.011
     15       Al     1       3.000          3.011                        -0.011
     16       Al     1       3.000          3.011                        -0.011

  Total Charge                                                            0.052
 !-----------------------------------------------------------------------------!

 !-----------------------------------------------------------------------------!
                         Generate Active Space Hamiltonian
                          Interface to CAS-CI and DMRG-CI
 !-----------------------------------------------------------------------------!
  Hartree-Fock model for interaction Hamiltonian
  Total number of electrons                                                  48
  Number of inactive electrons                                               46
  Number of active electrons                                                  2

  Active space orbitals selected manually
  Number of inactive orbitals                                                23
  Number of active orbitals                                                   5

  Calculating virtual MOs...
 OT| Eigensolver reached convergence in 1 iterations

 *** WARNING in fm/cp_fm_elpa.F:522 :: Setting real_kernel for ELPA failed ***


  Orbital Energies and Selection for spin  1                     [atomic units]
        -0.380659  [I]     -0.316188  [I]     -0.286280  [I]     -0.273725  [I]
        -0.227536  [I]     -0.155327  [I]     -0.098153  [I]     -0.098151  [I]
        -0.098151  [I]     -0.095594  [I]     -0.095592  [I]     -0.095590  [I]
        -0.070038  [I]     -0.070036  [I]     -0.070029  [I]     -0.065934  [I]
        -0.065932  [I]     -0.065930  [I]     -0.063393  [I]     -0.017400  [I]
        -0.017400  [I]     -0.017399  [I]      0.001874  [I]      0.001879  [A]
         0.001880  [A]      0.038711  [A]      0.059779  [A]      0.059779  [A]

  Active Orbital Indices for spin  1
    24  25  26  27
    28

  Calculation of Electron Repulsion Integrals
  Integration method                             GPW Fourier transform over MOs
  ERI operator                                                   Coulomb <1/R>
  Accuracy of ERI                                                    0.1000E-11
  Periodicity                                                           1  1  1
  Total Number of ERI                                                        78

 ERI_GPW| Energy cutoff [Ry]                                               400.0
 ERI_GPW| Relative energy cutoff [Ry]                                       50.0
 ERI_GPW| Poisson Greens function                                       PERIODIC

 -------------------------------------------------------------------------------
 ----                             MULTIGRID INFO                            ----
 -------------------------------------------------------------------------------
 count for grid        1:              0          cutoff [a.u.]          200.00
 count for grid        2:          17680          cutoff [a.u.]           66.67
 count for grid        3:          15680          cutoff [a.u.]           22.22
 count for grid        4:           3680          cutoff [a.u.]            7.41
 count for grid        5:           1680          cutoff [a.u.]            2.47
 total gridlevel count  :          38720

 ERI_GPW| Spinmatrix: 1      Number of  CSR non-zero elements:              120
 ERI_GPW| Spinmatrix: 1      Percentage CSR non-zero elements:           0.0728
 ERI_GPW| Spinmatrix: 1      nrows_total                                    406
 ERI_GPW| Spinmatrix: 1      ncols_total                                    406
 ERI_GPW| Spinmatrix: 1      nrows_local                                      0

  @SERVER: Created socket with address embedding_socket
  @SERVER: Waiting for requests...
  @SERVER: Accepted socket with fd 25

  Iter    Update    Time         Corr. energy         Total energy        Change
  ------------------------------------------------------------------------------
     1    P_Mix     ****        -0.1877443196       -34.8670445958     -1.88E-01
     2    P_Mix     ****        -0.1923679344       -34.8716682106     -4.62E-03
     3    P_Mix     ****        -0.0441631483       -34.7234634245      1.48E-01
     4    P_Mix     ****        -0.0440852338       -34.7233855100      7.79E-05
     5    P_Mix     ****        -0.0440757264       -34.7233760027      9.51E-06
     6    P_Mix     ****        -0.0440751005       -34.7233753767      6.26E-07

  *** rsDFT embedding run converged in     6 iteration(s) ***

   FCIDUMP| Checksum:                                             36.45888610

 !-------------------- End of Active Space Interface --------------------------!

 ENERGY| Total FORCE_EVAL ( QS ) energy [a.u.]:              -34.723375376691408

 -------------------------------------------------------------------------------
 -                                                                             -
 -                                DBCSR STATISTICS                             -
 -                                                                             -
 -------------------------------------------------------------------------------
 COUNTER                                    TOTAL       BLAS       SMM       ACC
 flops    12 x    12 x    52               119808       0.0%    100.0%      0.0%     
 flops    12 x    32 x    52               319488       0.0%    100.0%      0.0%     
 flops    32 x    12 x    52               319488       0.0%    100.0%      0.0%     
 flops    32 x    32 x    52               851968       0.0%    100.0%      0.0%     
 flops    13 x    12 x    13              2076672       0.0%    100.0%      0.0%     
 flops    13 x    32 x    13              5537792       0.0%    100.0%      0.0%     
 flops    13 x    13 x    28              9009728       0.0%    100.0%      0.0%     
 flops    13 x    13 x    12              9377472       0.0%    100.0%      0.0%     
 flops    13 x    13 x    32             25006592       0.0%    100.0%      0.0%     
 flops    13 x    28 x    13             48455680       0.0%    100.0%      0.0%     
 flops inhomo. stacks                           0       0.0%      0.0%      0.0%
 flops total                       101.074688E+06       0.0%    100.0%      0.0%
 flops max/rank                     17.541056E+06       0.0%    100.0%      0.0%
 matmuls inhomo. stacks                         0       0.0%      0.0%      0.0%
 matmuls total                              11752       0.0%    100.0%      0.0%
 number of processed stacks                  2112       0.0%    100.0%      0.0%
 average stack size                                     0.0       5.6       0.0
 marketing flops                   110.982144E+06
 -------------------------------------------------------------------------------
 # multiplications                             64
 max memory usage/rank             402.411520E+06
 # max total images/rank                        1
 # max 3D layers                                1
 # MPI messages exchanged                    6144
 MPI messages size (bytes):
  total size                        40.468224E+06
  min size                           0.000000E+00
  max size                          21.632000E+03
  average size                       6.586625E+03
 MPI breakdown and total messages size (bytes):
             size <=      128                3456                        0
       128 < size <=     8192                 552                  2728704
      8192 < size <=    32768                2136                 37739520
     32768 < size <=   131072                   0                        0
    131072 < size <=  4194304                   0                        0
   4194304 < size <= 16777216                   0                        0
  16777216 < size                               0                        0
 -------------------------------------------------------------------------------
 -                                                                             -
 -                      DBCSR MESSAGE PASSING PERFORMANCE                      -
 -                                                                             -
 -------------------------------------------------------------------------------
 ROUTINE             CALLS      AVE VOLUME [Bytes]
 MP_Bcast               11                     12.
 MP_Allreduce          354                     10.
 MP_Alltoall          1236                   5010.
 MP_ISend              978                   3665.
 MP_IRecv              978                   2989.
 -------------------------------------------------------------------------------

 -------------------------------------------------------------------------------
 -                                                                             -
 -                                DBM STATISTICS                               -
 -                                                                             -
 -------------------------------------------------------------------------------
    M  x    N  x    K                                          COUNT     PERCENT
 -------------------------------------------------------------------------------

 -------------------------------------------------------------------------------
 -                                                                             -
 -                                GRID STATISTICS                              -
 -                                                                             -
 -------------------------------------------------------------------------------
 LP    KERNEL             BACKEND                              COUNT     PERCENT
 4     integrate general  CPU                                 182004      54.54%
 4     collocate general  CPU                                 150624      45.14%
 0     collocate general  CPU                                    512       0.15%
 2     collocate general  CPU                                    320       0.10%
 0     integrate general  CPU                                    256       0.08%
 -------------------------------------------------------------------------------

 MEMORY| Estimated peak process memory [MiB]                                 386

 -------------------------------------------------------------------------------
 ----                             MULTIGRID INFO                            ----
 -------------------------------------------------------------------------------
 count for grid        1:              0          cutoff [a.u.]          200.00
 count for grid        2:          17824          cutoff [a.u.]           66.67
 count for grid        3:          18080          cutoff [a.u.]           22.22
 count for grid        4:           3572          cutoff [a.u.]            7.41
 count for grid        5:            400          cutoff [a.u.]            2.47
 total gridlevel count  :          39876

 -------------------------------------------------------------------------------
 -                                                                             -
 -                         MESSAGE PASSING PERFORMANCE                         -
 -                                                                             -
 -------------------------------------------------------------------------------

 ROUTINE             CALLS      AVE VOLUME [Bytes]
 MP_Group               10
 MP_Bcast              130                1437997.
 MP_Allreduce          999                    752.
 MP_Sync                64
 MP_Alltoall           579                1590807.
 MP_SendRecv          1305                  12704.
 MP_ISendRecv         1305                  12704.
 MP_Wait              4390
 MP_comm_split          18
 MP_ISend             2612                  85652.
 MP_IRecv             2612                  85682.
 -------------------------------------------------------------------------------


 -------------------------------------------------------------------------------
 -                                                                             -
 -                           R E F E R E N C E S                               -
 -                                                                             -
 -------------------------------------------------------------------------------
 
 CP2K version 2024.2, the CP2K developers group (2024).
 CP2K is freely available from https://www.cp2k.org/ .
 
 T. D. Kuehne, M. Iannuzzi, M. Del Ben, V. V. Rybkin, P. Seewald, F. Stein, T. 
 Laino, R. Z. Khaliullin, O. Schuett, F. Schiffmann, D. Golze, J. Wilhelm, S. 
 Chulkov, M. H. Bani-Hashemian, V. Weber, U. Borstnik, M. Taillefumier, A. S. 
 Jakobovits, A. Lazzaro, H. Pabst, T. Mueller, R. Schade, M. Guidon, S. 
 Andermatt, N. Holmberg, G. K. Schenter, A. Hehn, A. Bussy, F. Belleflamme, G. 
 Tabacchi, A. Gloess, M. Lass, I. Bethune, C. J. Mundy, C. Plessl, M. Watkins, 
 J. VandeVondele, M. Krack, J. Hutter.
 J. Chem. Phys. 152, 194103 (2020).
 CP2K: An electronic structure and molecular dynamics software package - 
 Quickstep: Efficient and accurate electronic structure calculations.
 https://doi.org/10.1063/5.0007045

 O. Schuett, P. Messmer, J. Hutter, J. VandeVondele.
 Electronic Structure Calculations on Graphics Processing Units, 173-190 (2016).
 GPU-Accelerated Sparse Matrix-Matrix Multiplication for Linear Scaling Density 
 Functional Theory.
 https://doi.org/10.1002/9781118670712.ch8

 A. Heinecke, G. Henry, M. Hutchinson, H. Pabst.
 Proceedings of Intl. Supercomputing Conference, 981-991 (2016).
 LIBXSMM: Accelerating Small Matrix Multiplications by Runtime Code Generation.
 https://doi.org/10.1109/SC.2016.83

 J. Hutter, M. Iannuzzi, F. Schiffmann, J. VandeVondele.
 WIREs Comput Mol Sci. 4, 15-25 (2014).
 CP2K: atomistic simulations of condensed matter systems.
 https://doi.org/10.1002/wcms.1159

 U. Borstnik, J. VandeVondele, V. Weber, J. Hutter.
 Parallel Comput. 40, 47-58 (2014).
 Sparse matrix multiplication: The distributed block-compressed sparse row 
 library.
 https://doi.org/10.1016/j.parco.2014.03.012

 A. Marek, V. Blum, R. Johanni, V. Havu, B. Lang, T. Auckenthaler, A. Heinecke, 
 H. Bungartz, H. Lederer.
 J. Phys. Condens. Matter 26, 213201 (2014).
 The ELPA library: scalable parallel eigenvalue solutions for electronic 
 structure theory and computational science.
 https://doi.org/10.1088/0953-8984/26/21/213201

 J. VandeVondele, J. Hutter.
 J. Chem. Phys. 127, 114105 (2007).
 Gaussian basis sets for accurate calculations on molecular systems in gas and 
 condensed phases.
 https://doi.org/10.1063/1.2770708

 J. VandeVondele, M. Krack, F. Mohamed, M. Parrinello, T. Chassaing, J. Hutter.
 Comput. Phys. Commun. 167, 103-128 (2005).
 QUICKSTEP: Fast and accurate density functional calculations using a mixed 
 Gaussian and plane waves approach.
 https://doi.org/10.1016/j.cpc.2004.12.014

 M. Krack.
 Theor. Chem. Acc. 114, 145-152 (2005).
 Pseudopotentials for H to Kr optimized for gradient-corrected 
 exchange-correlation functionals.
 https://doi.org/10.1007/s00214-005-0655-y

 M. Frigo, S. G. Johnson.
 Proc. IEEE 93, 216-231 (2005).
 The design and implementation of FFTW3.
 https://doi.org/10.1109/JPROC.2004.840301

 J. VandeVondele, J. Hutter.
 J. Chem. Phys. 118, 4365-4369 (2003).
 An efficient orbital transformation method for electronic structure 
 calculations.
 https://doi.org/10.1063/1.1543154

 C. Hartwigsen, S. Goedecker, J. Hutter.
 Phys. Rev. B 58, 3641-3662 (1998).
 Relativistic separable dual-space Gaussian pseudopotentials from H to Rn.
 https://doi.org/10.1103/PhysRevB.58.3641

 G. Lippert, J. Hutter, M. Parrinello.
 Mol. Phys. 92, 477-487 (1997).
 A hybrid Gaussian and plane wave density functional scheme.
 https://doi.org/10.1080/002689797170220

 S. Goedecker, M. Teter, J. Hutter.
 Phys. Rev. B 54, 1703-1710 (1996).
 Separable dual-space Gaussian pseudopotentials.
 https://doi.org/10.1103/PhysRevB.54.1703


 -------------------------------------------------------------------------------
 -                                                                             -
 -                                T I M I N G                                  -
 -                                                                             -
 -------------------------------------------------------------------------------
 SUBROUTINE                       CALLS  ASD         SELF TIME        TOTAL TIME
                                MAXIMUM       AVERAGE  MAXIMUM  AVERAGE  MAXIMUM
 CP2K                                 1  1.0    0.005    0.006 1531.223 1531.231
 qs_energies                          1  2.0    0.000    0.000 1531.169 1531.176
 active_space_main                    1  3.0    0.003    0.004 1529.186 1529.193
 rsdft_embedding                      1  4.0    0.015    0.016 1528.718 1528.726
 mp_bcast_av                        534  1.1    0.002    0.002 1430.746 1526.137
 send_fock_to_client                  6  5.0    0.001    0.001 1526.127 1526.135
 mp_bcast_i                         535  2.1 1430.744 1526.135 1430.744 1526.135
 readbuffer_s                        14  6.0   95.383 1526.124   95.383 1526.124
 -------------------------------------------------------------------------------

 The number of warnings for this run is : 18
 
 -------------------------------------------------------------------------------
  **** **** ******  **  PROGRAM ENDED AT                 2024-08-28 20:32:41.992
 ***** ** ***  *** **   PROGRAM RAN ON                              ea43e71fd55f
 **    ****   ******    PROGRAM RAN BY                                 <unknown>
 ***** **    ** ** **   PROGRAM PROCESS ID                                   587
  **** **  *******  **  PROGRAM STOPPED IN                                  /mnt
