# Projected DOS for atomic kind Mg at iteration step i = 15, E(Fermi) =     0.312382 a.u.
#     MO Eigenvalue [a.u.]      Occupation                 s                 p                 d                 f
       1         -2.436432        2.000000        0.90749824        0.02391010        0.01168158        0.00045336
       2         -2.436258        2.000000        0.90875555        0.02482302        0.01156226        0.00044012
       3         -2.435928        2.000000        0.91900207        0.02612810        0.00773687        0.00029486
       4         -2.435907        2.000000        0.89337098        0.02449968        0.01486471        0.00068136
       5         -2.435907        2.000000        0.89337098        0.02449968        0.01486471        0.00068136
       6         -2.435878        2.000000        0.91783529        0.01746277        0.01165213        0.00039222
       7         -2.434576        2.000000        0.92720331        0.01684366        0.00555495        0.00023232
       8         -2.434534        2.000000        0.89554820        0.03480813        0.00779437        0.00050005
       9         -2.434524        2.000000        0.89543984        0.03307487        0.01145600        0.00022488
      10         -2.434498        2.000000        0.88269674        0.03548405        0.01120507        0.00040134
      11         -2.434498        2.000000        0.88269673        0.03548393        0.01120513        0.00040135
      12         -2.434440        2.000000        0.91259447        0.02001804        0.01194744        0.00042412
      13         -2.434435        2.000000        0.87553776        0.01448375        0.01927634        0.00044412
      14         -2.434431        2.000000        0.91854281        0.02814341        0.01014332        0.00025461
      15         -2.434418        2.000000        0.89407770        0.02205629        0.01068200        0.00076277
      16         -2.434418        2.000000        0.89407708        0.02205680        0.01068194        0.00076278
      17         -2.434363        2.000000        0.87567842        0.01509271        0.01892674        0.00046243
      18         -2.434360        2.000000        0.89867757        0.02758949        0.00835347        0.00052771
      19         -2.434360        2.000000        0.89867653        0.02758967        0.00835367        0.00052772
      20         -2.434354        2.000000        0.90418857        0.02126625        0.00984008        0.00063954
      21         -2.434345        2.000000        0.93567850        0.01070829        0.01288894        0.00020292
      22         -2.434333        2.000000        0.91899946        0.00680275        0.01746480        0.00036892
      23         -2.434062        2.000000        0.90362963        0.02376445        0.01131347        0.00039623
      24         -2.434005        2.000000        0.92310797        0.02701192        0.01032307        0.00017176
      25         -2.433970        2.000000        0.88688235        0.01862017        0.01457846        0.00051279
      26         -2.433970        2.000000        0.88688236        0.01862015        0.01457846        0.00051279
      27         -2.433949        2.000000        0.89480049        0.02844470        0.01080451        0.00050511
      28         -2.433943        2.000000        0.90788675        0.02055792        0.00988135        0.00051804
      29         -2.433886        2.000000        0.88950811        0.02030625        0.01329215        0.00053002
      30         -2.433886        2.000000        0.88950815        0.02030623        0.01329215        0.00053002
      31         -2.433878        2.000000        0.91820022        0.01436657        0.01159978        0.00041636
      32         -2.433830        2.000000        0.94028167        0.00416115        0.01482887        0.00027272
      33         -1.216830        2.000000        0.00407891        0.98004268        0.00344845        0.00065282
      34         -1.216472        2.000000        0.00080840        0.96883358        0.00738488        0.00107683
      35         -1.216271        2.000000        0.00161229        0.96462988        0.00534910        0.00083311
      36         -1.216271        2.000000        0.00161228        0.96462987        0.00534911        0.00083311
      37         -1.216218        2.000000        0.00161333        0.96680260        0.00475671        0.00071870
      38         -1.216218        2.000000        0.00161333        0.96680259        0.00475672        0.00071870
      39         -1.216063        2.000000        0.00216296        0.97026677        0.00283697        0.00062516
      40         -1.216053        2.000000        0.00587302        0.97629060        0.00488768        0.00098979
      41         -1.215953        2.000000        0.00722090        0.97468546        0.00572768        0.00099689
      42         -1.215721        2.000000        0.00382317        0.96985968        0.00673586        0.00128404
      43         -1.215721        2.000000        0.00382318        0.96985967        0.00673586        0.00128404
      44         -1.215471        2.000000        0.00502192        0.96524183        0.00408833        0.00072688
      45         -1.215464        2.000000        0.00466673        0.96621232        0.00618138        0.00105775
      46         -1.215464        2.000000        0.00466673        0.96621232        0.00618138        0.00105775
      47         -1.215426        2.000000        0.00387565        0.96431851        0.00785674        0.00141976
      48         -1.215278        2.000000        0.00037793        0.96652777        0.00749588        0.00115443
      49         -1.215278        2.000000        0.00037792        0.96652777        0.00749588        0.00115443
      50         -1.215179        2.000000        0.00000000        0.96277079        0.00938743        0.00118384
      51         -1.215044        2.000000        0.00363797        0.96548385        0.00575274        0.00095714
      52         -1.215044        2.000000        0.00363798        0.96548388        0.00575274        0.00095714
      53         -1.214993        2.000000        0.00516970        0.97075314        0.00356585        0.00062457
      54         -1.214881        2.000000        0.00251869        0.96531340        0.00590553        0.00090984
      55         -1.214880        2.000000        0.00387417        0.95721505        0.00469515        0.00071405
      56         -1.214880        2.000000        0.00387416        0.95721517        0.00469517        0.00071405
      57         -1.214870        2.000000        0.00409804        0.95742539        0.00491476        0.00070485
      58         -1.214632        2.000000        0.00487608        0.96088751        0.00777216        0.00144710
      59         -1.214632        2.000000        0.00487609        0.96088751        0.00777216        0.00144710
      60         -1.214555        2.000000        0.00536117        0.96226216        0.00782896        0.00118376
      61         -1.214521        2.000000        0.00385189        0.95863727        0.00908772        0.00116312
      62         -1.214464        2.000000        0.00992885        0.96911731        0.00558721        0.00069465
      63         -1.214445        2.000000        0.00379352        0.95843344        0.00871240        0.00117491
      64         -1.214445        2.000000        0.00379350        0.95843343        0.00871243        0.00117491
      65         -1.214390        2.000000        0.00655546        0.97215879        0.00593707        0.00129556
      66         -1.214304        2.000000        0.00497088        0.96346501        0.00613126        0.00096918
      67         -1.214304        2.000000        0.00497094        0.96346504        0.00613122        0.00096918
      68         -1.214286        2.000000        0.00809152        0.96602171        0.00449891        0.00073461
      69         -1.214241        2.000000        0.00094721        0.96603642        0.00845087        0.00172655
      70         -1.214236        2.000000        0.00173054        0.96057040        0.00890767        0.00120753
      71         -1.214236        2.000000        0.00173054        0.96057039        0.00890767        0.00120753
      72         -1.214170        2.000000        0.00122132        0.96518855        0.00805997        0.00172129
      73         -1.214170        2.000000        0.00122131        0.96518851        0.00805999        0.00172129
      74         -1.214123        2.000000        0.00000000        0.96327445        0.00866726        0.00141459
      75         -1.214048        2.000000        0.01299077        0.97067792        0.00303202        0.00039228
      76         -1.214042        2.000000        0.00290526        0.96511237        0.00850008        0.00089034
      77         -1.214042        2.000000        0.00290510        0.96511220        0.00850011        0.00089036
      78         -1.214042        2.000000        0.00915755        0.97062940        0.00672662        0.00019186
      79         -1.214031        2.000000        0.00999041        0.97288761        0.00623391        0.00017133
      80         -1.213982        2.000000        0.00007149        0.96103551        0.01226716        0.00059007
      81         -1.213972        2.000000        0.00368739        0.96485823        0.00834637        0.00081062
      82         -1.213972        2.000000        0.00368740        0.96485825        0.00834637        0.00081061
      83         -1.213958        2.000000        0.00000000        0.96180138        0.01324339        0.00039891
      84         -1.213956        2.000000        0.00579914        0.96599874        0.00793447        0.00066504
      85         -1.213912        2.000000        0.00000075        0.96246170        0.01281422        0.00042305
      86         -1.213898        2.000000        0.00306095        0.96651307        0.00215899        0.00326940
      87         -1.213895        2.000000        0.00036688        0.96344974        0.01174200        0.00060652
      88         -1.213831        2.000000        0.00125517        0.97472003        0.01311483        0.00026961
      89         -1.213810        2.000000        0.00038749        0.97003707        0.00725118        0.00223013
      90         -1.213810        2.000000        0.00038748        0.97003706        0.00725119        0.00223012
      91         -1.213644        2.000000        0.00002184        0.96604491        0.00380270        0.00347437
      92         -1.213644        2.000000        0.00002184        0.96604491        0.00380271        0.00347437
      93         -1.213637        2.000000        0.00178249        0.98433858        0.00583058        0.00140822
      94         -1.213552        2.000000        0.00000000        0.98226035        0.00565301        0.00162782
      95         -1.213520        2.000000        0.00016616        0.97562434        0.00695865        0.00121262
      96         -1.213520        2.000000        0.00016616        0.97562433        0.00695865        0.00121262
      97         -1.213467        2.000000        0.00283078        0.98344318        0.00452196        0.00175886
      98         -1.213461        2.000000        0.00010762        0.97665084        0.00846673        0.00112724
      99         -1.213430        2.000000        0.00082877        0.97414311        0.00489530        0.00161861
     100         -1.213430        2.000000        0.00082878        0.97414303        0.00489533        0.00161860
     101         -1.213412        2.000000        0.00008311        0.97450259        0.00328156        0.00285784
     102         -1.213403        2.000000        0.00227565        0.97529232        0.00466526        0.00143738
     103         -1.213341        2.000000        0.00036853        0.97889858        0.00502511        0.00153704
     104         -1.213341        2.000000        0.00036852        0.97889851        0.00502510        0.00153704
     105         -1.213288        2.000000        0.00011785        0.98170319        0.00417501        0.00146933
     106         -1.213288        2.000000        0.00011786        0.98170304        0.00417505        0.00146932
     107         -1.213237        2.000000        0.00022759        0.98432999        0.00311863        0.00216615
     108         -1.213237        2.000000        0.00022759        0.98433002        0.00311862        0.00216615
     109         -1.213192        2.000000        0.00005847        0.97369535        0.00665560        0.00128446
     110         -1.213187        2.000000        0.00000000        0.97418803        0.00626881        0.00135199
     111         -1.213146        2.000000        0.00025793        0.99278566        0.00061610        0.00312608
     112         -1.213126        2.000000        0.00008359        0.98907797        0.00220609        0.00247115
     113         -1.213126        2.000000        0.00008358        0.98907796        0.00220609        0.00247115
     114         -1.213114        2.000000        0.00099088        0.98884907        0.00373646        0.00117496
     115         -1.213108        2.000000        0.00053111        0.98218877        0.00399220        0.00148974
     116         -1.213108        2.000000        0.00053111        0.98218873        0.00399220        0.00148974
     117         -1.213060        2.000000        0.00007033        0.98872421        0.00306764        0.00123009
     118         -1.213050        2.000000        0.00050855        0.98800408        0.00402168        0.00118284
     119         -1.213050        2.000000        0.00050855        0.98800410        0.00402166        0.00118285
     120         -1.213029        2.000000        0.00009642        0.98673153        0.00390810        0.00120523
     121         -1.212900        2.000000        0.00055714        0.99170264        0.00228521        0.00190356
     122         -1.212895        2.000000        0.00006138        0.99048223        0.00237143        0.00197231
     123         -1.212895        2.000000        0.00006138        0.99048222        0.00237143        0.00197230
     124         -1.212792        2.000000        0.00062593        0.98673711        0.00117157        0.00064626
     125         -1.212734        2.000000        0.00001632        0.99353144        0.00145359        0.00227139
     126         -1.212729        2.000000        0.00000000        0.99354477        0.00145555        0.00226169
     127         -1.212719        2.000000        0.00007572        0.98574095        0.00146918        0.00084574
     128         -1.212719        2.000000        0.00007572        0.98574095        0.00146918        0.00084573
     129         -0.395286        2.000000        0.58309174        0.00643766        0.00403775        0.00426880
     130         -0.372273        2.000000        0.17112650        0.22588312        0.13084699        0.05945273
     131         -0.371126        2.000000        0.17740929        0.22378234        0.12480090        0.05983144
     132         -0.370224        2.000000        0.17526948        0.22722505        0.12789151        0.05606968
     133         -0.370224        2.000000        0.17526948        0.22722505        0.12789151        0.05606968
     134         -0.369980        2.000000        0.17068381        0.22973605        0.13175604        0.05463615
     135         -0.367035        2.000000        0.14671205        0.22998405        0.13348632        0.07424705
     136         -0.356988        2.000000        0.04935342        0.21925012        0.18324908        0.12940952
     137         -0.355538        2.000000        0.04348030        0.22083824        0.18569392        0.13004873
     138         -0.354896        2.000000        0.04366604        0.23391644        0.16196752        0.13828817
     139         -0.354896        2.000000        0.04366604        0.23391645        0.16196751        0.13828817
     140         -0.354732        2.000000        0.04016966        0.23955377        0.15710433        0.14075951
     141         -0.354636        2.000000        0.04458045        0.22445967        0.17736544        0.13222654
     142         -0.354458        2.000000        0.04377789        0.22627220        0.17446735        0.13402962
     143         -0.354458        2.000000        0.04377791        0.22627217        0.17446736        0.13402962
     144         -0.354175        2.000000        0.04352941        0.22638323        0.17492274        0.13436639
     145         -0.354175        2.000000        0.04352940        0.22638323        0.17492275        0.13436639
     146         -0.354159        2.000000        0.04500577        0.22272482        0.17808424        0.13360154
     147         -0.351978        2.000000        0.01196654        0.32423283        0.05621255        0.18290439
     148         -0.351447        2.000000        0.00439699        0.35341089        0.01751646        0.19864764
     149         -0.351447        2.000000        0.00439699        0.35341088        0.01751647        0.19864764
     150         -0.351343        2.000000        0.00488377        0.35222975        0.01898594        0.19789486
     151         -0.348819        2.000000        0.02554256        0.09623577        0.38785213        0.06829222
     152         -0.344136        2.000000        0.01266017        0.00872085        0.53652756        0.01524416
     153         -0.344006        2.000000        0.01380162        0.00460053        0.54573482        0.00827730
     154         -0.342294        2.000000        0.00417697        0.03736304        0.46596045        0.07063293
     155         -0.342019        2.000000        0.00699172        0.03078949        0.48643119        0.05172935
     156         -0.341748        2.000000        0.00033462        0.04005998        0.45375495        0.08451743
     157         -0.341720        2.000000        0.00028354        0.04020380        0.45362775        0.08445546
     158         -0.341720        2.000000        0.00028354        0.04020380        0.45362775        0.08445545
     159         -0.341544        2.000000        0.00235460        0.03558170        0.46647126        0.07352642
     160          0.067163        2.000000        0.18875279        0.00008541        0.34301911        0.00004997
     161          0.068639        2.000000        0.18321687        0.01013868        0.33346637        0.00203365
     162          0.068639        2.000000        0.18321687        0.01013868        0.33346638        0.00203365
     163          0.068656        2.000000        0.18266358        0.00982901        0.33441653        0.00205510
     164          0.087963        2.000000        0.00836056        0.33813474        0.01421206        0.01838232
     165          0.087963        2.000000        0.00836055        0.33813474        0.01421205        0.01838231
     166          0.088097        2.000000        0.00696831        0.34040945        0.01309348        0.01780608
     167          0.094117        2.000000        0.15053400        0.15367892        0.18742592        0.05227549
     168          0.104710        2.000000        0.13256224        0.06748018        0.21292770        0.07672137
     169          0.105561        2.000000        0.13348595        0.06721143        0.21205181        0.07658863
     170          0.105561        2.000000        0.13348595        0.06721143        0.21205182        0.07658863
     171          0.105736        2.000000        0.13434785        0.06721956        0.21338637        0.07498413
     172          0.106036        2.000000        0.13448616        0.06675368        0.21203545        0.07594407
     173          0.106265        2.000000        0.13422014        0.06690100        0.21162893        0.07642598
     174          0.106339        2.000000        0.13390850        0.06733075        0.21199628        0.07615520
     175          0.106339        2.000000        0.13390850        0.06733075        0.21199627        0.07615520
     176          0.110344        2.000000        0.11256168        0.09226082        0.20214484        0.07242309
     177          0.110344        2.000000        0.11256169        0.09226081        0.20214485        0.07242309
     178          0.111709        2.000000        0.11433976        0.08809143        0.20383318        0.07373334
     179          0.125321        2.000000        0.00178602        0.20013552        0.18988573        0.04046713
     180          0.125509        2.000000        0.00051872        0.20617606        0.18371286        0.03882714
     181          0.125509        2.000000        0.00051872        0.20617607        0.18371286        0.03882714
     182          0.126082        2.000000        0.00000000        0.20290031        0.18783150        0.04061527
     183          0.126539        2.000000        0.00117774        0.19947470        0.18995967        0.04112763
     184          0.126539        2.000000        0.00117774        0.19947470        0.18995968        0.04112764
     185          0.127100        2.000000        0.00055122        0.19648846        0.19438042        0.04139484
     186          0.127100        2.000000        0.00055122        0.19648846        0.19438042        0.04139484
     187          0.127115        2.000000        0.00006296        0.19923903        0.19182993        0.03966507
     188          0.128576        2.000000        0.10476131        0.12325670        0.11845665        0.11426383
     189          0.131435        2.000000        0.03911746        0.15287295        0.16297049        0.07879148
     190          0.131435        2.000000        0.03911746        0.15287294        0.16297048        0.07879148
     191          0.132061        2.000000        0.03735475        0.15532922        0.16147089        0.07857557
     192          0.136127        2.000000        0.08285404        0.10296123        0.11483580        0.12655688
     193          0.136378        2.000000        0.08255412        0.10347886        0.11490431        0.12620691
     194          0.141854        2.000000        0.05158182        0.12700310        0.15474865        0.09673539
     195          0.141879        2.000000        0.04963417        0.13024983        0.15461542        0.09608431
     196          0.141879        2.000000        0.04963417        0.13024983        0.15461542        0.09608431
     197          0.159200        2.000000        0.00000000        0.14226485        0.22836452        0.05039904
     198          0.160013        2.000000        0.00000509        0.13974477        0.23031505        0.04944577
     199          0.160097        2.000000        0.00171541        0.13721650        0.22777680        0.05423001
     200          0.160097        2.000000        0.00171541        0.13721650        0.22777680        0.05423001
     201          0.160470        2.000000        0.00096989        0.13549373        0.23131910        0.05201966
     202          0.160470        2.000000        0.00096989        0.13549373        0.23131910        0.05201966
     203          0.160562        2.000000        0.00005103        0.13718140        0.23065306        0.05197623
     204          0.160759        2.000000        0.00000000        0.13357202        0.23268483        0.05535180
     205          0.161646        2.000000        0.00000517        0.13181944        0.23335301        0.05444230
     206          0.162762        2.000000        0.06370723        0.07206768        0.18114957        0.11128461
     207          0.162815        2.000000        0.06585440        0.07066707        0.18402583        0.10716521
     208          0.162815        2.000000        0.06585441        0.07066707        0.18402582        0.10716522
     209          0.167181        2.000000        0.13682837        0.00005576        0.14073340        0.15667276
     210          0.167966        2.000000        0.13682793        0.00017389        0.13689666        0.15941456
     211          0.168291        2.000000        0.13674259        0.00008801        0.13610260        0.16024108
     212          0.175492        2.000000        0.05246537        0.07623667        0.11320869        0.17099945
     213          0.175492        2.000000        0.05246536        0.07623669        0.11320867        0.17099947
     214          0.175639        2.000000        0.05912068        0.06935191        0.11434899        0.16999575
     215          0.182525        2.000000        0.00000147        0.12572661        0.00090320        0.26591256
     216          0.182525        2.000000        0.00000147        0.12572661        0.00090320        0.26591256
     217          0.182555        2.000000        0.00004655        0.12576548        0.00050893        0.26613159
     218          0.187466        2.000000        0.00890443        0.09312888        0.08301558        0.19068763
     219          0.187466        2.000000        0.00890443        0.09312887        0.08301560        0.19068761
     220          0.187810        2.000000        0.00647566        0.09723863        0.07735419        0.19646806
     221          0.202690        2.000000        0.00008300        0.07499978        0.07923425        0.20098189
     222          0.202771        2.000000        0.00010938        0.06454797        0.11291240        0.16428965
     223          0.202771        2.000000        0.00010938        0.06454797        0.11291239        0.16428966
     224          0.203590        2.000000        0.00025468        0.07341543        0.08773547        0.18959757
     225          0.203590        2.000000        0.00025468        0.07341542        0.08773548        0.18959755
     226          0.203905        2.000000        0.00000000        0.08466154        0.06083122        0.21570992
     227          0.204178        2.000000        0.00001193        0.08352029        0.06270540        0.21375608
     228          0.204178        2.000000        0.00001193        0.08352029        0.06270541        0.21375607
     229          0.204476        2.000000        0.00001471        0.08447248        0.06020932        0.21566459
     230          0.204476        2.000000        0.00001471        0.08447249        0.06020929        0.21566460
     231          0.204642        2.000000        0.00000392        0.08507077        0.05874673        0.21668391
     232          0.205242        2.000000        0.00007237        0.05432110        0.13257766        0.14512456
     233          0.207367        2.000000        0.00001173        0.01302070        0.22048333        0.06106660
     234          0.207695        2.000000        0.00001115        0.01106462        0.22790612        0.05279353
     235          0.207695        2.000000        0.00001115        0.01106463        0.22790609        0.05279355
     236          0.207991        2.000000        0.00018073        0.00718695        0.22402600        0.06209655
     237          0.208285        2.000000        0.00002396        0.00771488        0.22005241        0.06574532
     238          0.208408        2.000000        0.00000000        0.00282579        0.25793733        0.02096113
     239          0.208446        2.000000        0.00000764        0.00894281        0.22031247        0.06420803
     240          0.208446        2.000000        0.00000764        0.00894280        0.22031255        0.06420793
     241          0.208461        2.000000        0.00000019        0.00022175        0.27526567        0.00029634
     242          0.208478        2.000000        0.00000000        0.00648455        0.23456524        0.04826451
     243          0.208496        2.000000        0.00002812        0.00776969        0.22157114        0.06275325
     244          0.208706        2.000000        0.00001615        0.00473131        0.25277779        0.02672894
     245          0.208742        2.000000        0.00003754        0.00463698        0.24893729        0.03178294
     246          0.208742        2.000000        0.00003754        0.00463698        0.24893721        0.03178305
     247          0.208761        2.000000        0.00009590        0.00375060        0.24726254        0.03463900
     248          0.209230        2.000000        0.00000431        0.00367934        0.24942160        0.03154015
     249          0.209230        2.000000        0.00000431        0.00367934        0.24942159        0.03154015
     250          0.227994        2.000000        0.00036678        0.04835709        0.01107143        0.26545207
     251          0.227994        2.000000        0.00036678        0.04835709        0.01107144        0.26545206
     252          0.228097        2.000000        0.00055735        0.04747123        0.01136495        0.26513369
     253          0.312382        2.000000        0.15609610        0.20834528        0.27296532        0.05253499
     254          0.413172        0.000000        0.21588267        0.07568943        0.05803376        0.00913503
     255          0.469259        0.000000        0.10860814        0.15263699        0.18059873        0.09660610
     256          0.469259        0.000000        0.10860815        0.15263698        0.18059872        0.09660610
     257          0.470702        0.000000        0.11493774        0.15095364        0.17047038        0.09439714
     258          0.510003        0.000000        0.00001660        0.39629475        0.00136951        0.24965536
     259          0.510003        0.000000        0.00004608        0.39609350        0.00132277        0.24970450