      63
 i =        1, E =     -2527.3933764886
 Mg         0.0000217027       -0.0030702201        0.0000217027
 Mg        -0.0000090115        0.0129626050        4.2740875278
 Mg         0.0001084146        4.2920532851        0.0001084146
 Mg         0.0000323291        4.2757929820        4.2740617941
 Mg         4.2740875278        0.0129626050       -0.0000090115
 Mg         4.2740457043       -0.0071117904        4.2740457043
 Mg         4.2740617941        4.2757929820        0.0000323291
 Mg         4.2740214080        4.2929351477        4.2740214080
 Mg         0.0000002948        2.1670043689        2.1182578025
 Mg         0.0000023379        2.1670245186        6.4297614854
 Mg        -0.0000003172        6.4408956609        2.1444609333
 Mg        -0.0000003197        6.4412034623        6.4034967112
 Mg         4.2740288385        2.1687512673        2.0831807363
 Mg         4.2740287747        2.1687539585        6.4648755326
 Mg         4.2740218677        6.4410969169        2.1307469198
 Mg         4.2740239077        6.4411100510        6.4172610579
 Mg         2.1148569040        0.0115012509        2.1148569040
 Mg         2.1148445726        0.0115028437        6.4331816005
 Mg         2.1151190566        4.2862375461        2.1151190566
 Mg         2.1150788122        4.2862313334        6.4329144611
 Mg         6.4331816005        0.0115028437        2.1148445726
 Mg         6.4331939680        0.0115019559        6.4331939680
 Mg         6.4329144611        4.2862313334        2.1150788122
 Mg         6.4329545433        4.2862203398        6.4329545433
 Mg         2.1182578025        2.1670043689        0.0000002948
 Mg         2.0831807363        2.1687512673        4.2740288385
 Mg         2.1444609333        6.4408956609       -0.0000003172
 Mg         2.1307469198        6.4410969169        4.2740218677
 Mg         6.4297614854        2.1670245186        0.0000023379
 Mg         6.4648755326        2.1687539585        4.2740287747
 Mg         6.4034967112        6.4412034623       -0.0000003197
 Mg         6.4172610579        6.4411100510        4.2740239077
  O         0.0000003048        0.0154021468        2.1322613114
  O         0.0000002868        0.0154068161        6.4157869916
  O         0.0000000278        4.2851285770        2.1315531468
  O         0.0000002842        4.2851391042        6.4164943014
  O         4.2740308445        0.0160366188        2.1254942582
  O         4.2740310939        0.0160366671        6.4225648371
  O         4.2740295575        4.2866058233        2.1239219415
  O         4.2740296979        4.2866066426        6.4241358925
  O        -0.0000011856        2.1518551629       -0.0000011856
  O         0.0000031681        2.1525962277        4.2740309656
  O        -0.0000093438        6.4265532257       -0.0000093438
  O        -0.0000027305        6.4266347227        4.2740133292
  O         4.2740309656        2.1525962277        0.0000031681
  O         4.2740133292        6.4266347227       -0.0000027305
  O         4.2740287834        6.4259968749        4.2740287834
  O         2.1322613114        0.0154021468        0.0000003048
  O         2.1254942582        0.0160366188        4.2740308445
  O         2.1315531468        4.2851285770        0.0000000278
  O         2.1239219415        4.2866058233        4.2740295575
  O         6.4157869916        0.0154068161        0.0000002868
  O         6.4225648371        0.0160366671        4.2740310939
  O         6.4164943014        4.2851391042        0.0000002842
  O         6.4241358925        4.2866066426        4.2740296979
  O         2.1247450660        2.1517450380        2.1247450660
  O         2.1247432825        2.1517454119        6.4233151313
  O         2.1309867640        6.4263554164        2.1309867640
  O         2.1309805408        6.4263620844        6.4170586906
  O         6.4233151313        2.1517454119        2.1247432825
  O         6.4233169677        2.1517458818        6.4233169677
  O         6.4170586906        6.4263620844        2.1309805408
  O         6.4170652957        6.4263691416        6.4170652957
      63
 i =        2, E =     -2527.3982992979
 Mg        -0.0000417457        0.0108802948       -0.0000417457
 Mg         0.0000114828       -0.0063755139        4.2739254430
 Mg        -0.0001333606        4.2835139928       -0.0001333606
 Mg        -0.0000943588        4.2779743776        4.2739429885
 Mg         4.2739254430       -0.0063755139        0.0000114828
 Mg         4.2739897696        0.0151342470        4.2739897696
 Mg         4.2739429885        4.2779743776       -0.0000943588
 Mg         4.2740367772        4.2862809809        4.2740367772
 Mg        -0.0000018824        2.1720059730        2.1280110208
 Mg        -0.0000028122        2.1720603504        6.4199692352
 Mg        -0.0000053153        6.4488774612        2.1317749068
 Mg        -0.0000051108        6.4495788758        6.4163937505
 Mg         4.2740235248        2.1795088943        2.1022716290
 Mg         4.2740237846        2.1795213431        6.4457831498
 Mg         4.2740291534        6.4497470331        2.1412751090
 Mg         4.2740270197        6.4497830601        6.4068000693
 Mg         2.1233735610        0.0079209106        2.1233735610
 Mg         2.1233632928        0.0079274450        6.4246517411
 Mg         2.1237687331        4.2822978298        2.1237687331
 Mg         2.1236758143        4.2823024965        6.4242492468
 Mg         6.4246517411        0.0079274450        2.1233632928
 Mg         6.4246620248        0.0079329696        6.4246620248
 Mg         6.4242492468        4.2823024965        2.1236758143
 Mg         6.4243414526        4.2823027222        6.4243414526
 Mg         2.1280110208        2.1720059730       -0.0000018824
 Mg         2.1022716290        2.1795088943        4.2740235248
 Mg         2.1317749068        6.4488774612       -0.0000053153
 Mg         2.1412751090        6.4497470331        4.2740291534
 Mg         6.4199692352        2.1720603504       -0.0000028122
 Mg         6.4457831498        2.1795213431        4.2740237846
 Mg         6.4163937505        6.4495788758       -0.0000051108
 Mg         6.4068000693        6.4497830601        4.2740270197
  O        -0.0000026799        0.0161827226        2.1322235058
  O        -0.0000026195        0.0161973240        6.4158272890
  O         0.0000060750        4.2860103335        2.1316802813
  O         0.0000062855        4.2860228401        6.4163734851
  O         4.2740336857        0.0166048979        2.1262579667
  O         4.2740339014        0.0166065012        6.4217993784
  O         4.2740250612        4.2877048535        2.1247535236
  O         4.2740252197        4.2877052093        6.4233039617
  O         0.0000003146        2.1523679159        0.0000003146
  O         0.0000039326        2.1530538874        4.2740314986
  O        -0.0000060405        6.4268518413       -0.0000060405
  O        -0.0000020993        6.4270613453        4.2740151818
  O         4.2740314986        2.1530538874        0.0000039326
  O         4.2740151818        6.4270613453       -0.0000020993
  O         4.2740260558        6.4261699070        4.2740260558
  O         2.1322235058        0.0161827226       -0.0000026799
  O         2.1262579667        0.0166048979        4.2740336857
  O         2.1316802813        4.2860103335        0.0000060750
  O         2.1247535236        4.2877048535        4.2740250612
  O         6.4158272890        0.0161973240       -0.0000026195
  O         6.4217993784        0.0166065012        4.2740339014
  O         6.4163734851        4.2860228401        0.0000062855
  O         6.4233039617        4.2877052093        4.2740252197
  O         2.1248429489        2.1527255008        2.1248429489
  O         2.1248401469        2.1527199866        6.4232142131
  O         2.1316045840        6.4270741792        2.1316045840
  O         2.1315976769        6.4270924816        6.4164382151
  O         6.4232142131        2.1527199866        2.1248401469
  O         6.4232172013        2.1527143787        6.4232172013
  O         6.4164382151        6.4270924816        2.1315976769
  O         6.4164455101        6.4271108539        6.4164455101
      63
 i =        3, E =     -2527.4014039826
 Mg        -0.0000341751        0.0136351725       -0.0000341751
 Mg         0.0000108409       -0.0098403652        4.2739245392
 Mg        -0.0001570341        4.2737316846       -0.0001570341
 Mg        -0.0000643805        4.2782290635        4.2739715683
 Mg         4.2739245392       -0.0098403652        0.0000108409
 Mg         4.2739857651        0.0219742880        4.2739857651
 Mg         4.2739715683        4.2782290635       -0.0000643805
 Mg         4.2740384207        4.2784367500        4.2740384207
 Mg        -0.0000019282        2.1781234303        2.1379531813
 Mg        -0.0000037608        2.1782075460        6.4100167296
 Mg        -0.0000028755        6.4567615331        2.1293094796
 Mg        -0.0000027795        6.4574597385        6.4188037223
 Mg         4.2740226256        2.1858592819        2.1069756597
 Mg         4.2740227771        2.1858673673        6.4410787310
 Mg         4.2740317571        6.4579950005        2.1426849299
 Mg         4.2740292678        6.4580365887        6.4054150779
 Mg         2.1332404458        0.0044648580        2.1332404458
 Mg         2.1332426846        0.0044751590        6.4147755997
 Mg         2.1335789812        4.2783729090        2.1335789812
 Mg         2.1334509445        4.2783931750        6.4144380135
 Mg         6.4147755997        0.0044751590        2.1332426846
 Mg         6.4147732100        0.0044853632        6.4147732100
 Mg         6.4144380135        4.2783931750        2.1334509445
 Mg         6.4145640840        4.2784106566        6.4145640840
 Mg         2.1379531813        2.1781234303       -0.0000019282
 Mg         2.1069756597        2.1858592819        4.2740226256
 Mg         2.1293094796        6.4567615331       -0.0000028755
 Mg         2.1426849299        6.4579950005        4.2740317571
 Mg         6.4100167296        2.1782075460       -0.0000037608
 Mg         6.4410787310        2.1858673673        4.2740227771
 Mg         6.4188037223        6.4574597385       -0.0000027795
 Mg         6.4054150779        6.4580365887        4.2740292678
  O        -0.0000056811        0.0167050874        2.1323519867
  O        -0.0000055628        0.0167326571        6.4156978203
  O         0.0000073713        4.2868832542        2.1319826808
  O         0.0000075341        4.2868992502        6.4160703672
  O         4.2740345374        0.0172496035        2.1276110185
  O         4.2740346895        0.0172532047        6.4204443135
  O         4.2740214364        4.2886822875        2.1261642618
  O         4.2740215729        4.2886831899        6.4218903251
  O        -0.0000011464        2.1528832016       -0.0000011464
  O         0.0000035573        2.1535707736        4.2740302434
  O        -0.0000046827        6.4274676202       -0.0000046827
  O        -0.0000019856        6.4274902131        4.2740172635
  O         4.2740302434        2.1535707736        0.0000035573
  O         4.2740172635        6.4274902131       -0.0000019856
  O         4.2740246804        6.4267299012        4.2740246804
  O         2.1323519867        0.0167050874       -0.0000056811
  O         2.1276110185        0.0172496035        4.2740345374
  O         2.1319826808        4.2868832542        0.0000073713
  O         2.1261642618        4.2886822875        4.2740214364
  O         6.4156978203        0.0167326571       -0.0000055628
  O         6.4204443135        0.0172532047        4.2740346895
  O         6.4160703672        4.2868992502        0.0000075341
  O         6.4218903251        4.2886831899        4.2740215729
  O         2.1255862794        2.1536112411        2.1255862794
  O         2.1255821368        2.1536026389        6.4224683949
  O         2.1323917053        6.4278484991        2.1323917053
  O         2.1323836661        6.4278777692        6.4156512051
  O         6.4224683949        2.1536026389        2.1255821368
  O         6.4224727769        2.1535938087        6.4224727769
  O         6.4156512051        6.4278777692        2.1323836661
  O         6.4156595797        6.4279068790        6.4156595797
      63
 i =        4, E =     -2527.4037539520
 Mg         0.0000041627        0.0096870692        0.0000041627
 Mg        -0.0000002286       -0.0007694351        4.2740125268
 Mg         0.0000543561        4.2741553958        0.0000543561
 Mg         0.0000162210        4.2776450695        4.2740457586
 Mg         4.2740125268       -0.0007694351       -0.0000002286
 Mg         4.2740142053        0.0218225479        4.2740142053
 Mg         4.2740457586        4.2776450695        0.0000162210
 Mg         4.2740277990        4.2758540718        4.2740277990
 Mg        -0.0000003473        2.1823560068        2.1377646858
 Mg        -0.0000002417        2.1823892499        6.4102917814
 Mg         0.0000015821        6.4564449462        2.1360463941
 Mg         0.0000013911        6.4564395747        6.4119821686
 Mg         4.2740250617        2.1827237411        2.1022879867
 Mg         4.2740249258        2.1827250520        6.4457656242
 Mg         4.2740269370        6.4567084106        2.1360484375
 Mg         4.2740273012        6.4567072097        6.4120233767
 Mg         2.1388115603        0.0020953455        2.1388115603
 Mg         2.1388256251        0.0021000473        6.4092354456
 Mg         2.1387106063        4.2759928879        2.1387106063
 Mg         2.1386912876        4.2760129478        6.4093499800
 Mg         6.4092354456        0.0021000473        2.1388256251
 Mg         6.4092212898        0.0021045450        6.4092212898
 Mg         6.4093499800        4.2760129478        2.1386912876
 Mg         6.4093681764        4.2760326498        6.4093681764
 Mg         2.1377646858        2.1823560068       -0.0000003473
 Mg         2.1022879867        2.1827237411        4.2740250617
 Mg         2.1360463941        6.4564449462        0.0000015821
 Mg         2.1360484375        6.4567084106        4.2740269370
 Mg         6.4102917814        2.1823892499       -0.0000002417
 Mg         6.4457656242        2.1827250520        4.2740249258
 Mg         6.4119821686        6.4564395747        0.0000013911
 Mg         6.4120233767        6.4567072097        4.2740273012
  O        -0.0000072747        0.0169920830        2.1331227584
  O        -0.0000071575        0.0170306142        6.4149237438
  O         0.0000049088        4.2874376750        2.1328525024
  O         0.0000050194        4.2874570809        6.4151951604
  O         4.2740332884        0.0179678821        2.1292154003
  O         4.2740333860        0.0179731487        6.4188384258
  O         4.2740203094        4.2891773934        2.1277597527
  O         4.2740203909        4.2891795413        6.4202921374
  O        -0.0000042360        2.1532855737       -0.0000042360
  O         0.0000030534        2.1540864035        4.2740284169
  O        -0.0000061354        6.4283256851       -0.0000061354
  O        -0.0000017467        6.4280459811        4.2740191153
  O         4.2740284169        2.1540864035        0.0000030534
  O         4.2740191153        6.4280459811       -0.0000017467
  O         4.2740247862        6.4276692558        4.2740247862
  O         2.1331227584        0.0169920830       -0.0000072747
  O         2.1292154003        0.0179678821        4.2740332884
  O         2.1328525024        4.2874376750        0.0000049088
  O         2.1277597527        4.2891773934        4.2740203094
  O         6.4149237438        0.0170306142       -0.0000071575
  O         6.4188384258        0.0179731487        4.2740333860
  O         6.4151951604        4.2874570809        0.0000050194
  O         6.4202921374        4.2891795413        4.2740203909
  O         2.1270409683        2.1541708080        2.1270409683
  O         2.1270351754        2.1541632556        6.4210121325
  O         2.1333743959        6.4286243139        2.1333743959
  O         2.1333645524        6.4286596015        6.4146700679
  O         6.4210121325        2.1541632556        2.1270351754
  O         6.4210181194        2.1541554408        6.4210181194
  O         6.4146700679        6.4286596015        2.1333645524
  O         6.4146801534        6.4286946791        6.4146801534
      63
 i =        5, E =     -2527.4048661085
 Mg         0.0000075790        0.0028408538        0.0000075790
 Mg        -0.0000032135        0.0053182476        4.2740635983
 Mg         0.0000243832        4.2772195858        0.0000243832
 Mg         0.0000157278        4.2773342798        4.2740388133
 Mg         4.2740635983        0.0053182476       -0.0000032135
 Mg         4.2740334430        0.0195240477        4.2740334430
 Mg         4.2740388133        4.2773342798        0.0000157278
 Mg         4.2740240316        4.2774391554        4.2740240316
 Mg        -0.0000002245        2.1824578479        2.1345360885
 Mg         0.0000002495        2.1824294538        6.4135438915
 Mg         0.0000000104        6.4551880940        2.1388788673
 Mg         0.0000000552        6.4549926494        6.4091645295
 Mg         4.2740284089        2.1795070057        2.0925627357
 Mg         4.2740283368        2.1795059422        6.4554908603
 Mg         4.2740253962        6.4548105310        2.1351762377
 Mg         4.2740259833        6.4547982278        6.4128606676
 Mg         2.1370980292        0.0017989824        2.1370980292
 Mg         2.1370949282        0.0017985866        6.4109657779
 Mg         2.1370738333        4.2760881346        2.1370738333
 Mg         2.1371140833        4.2760788945        6.4109910625
 Mg         6.4109657779        0.0017985866        2.1370949282
 Mg         6.4109689325        0.0017983152        6.4109689325
 Mg         6.4109910625        4.2760788945        2.1371140833
 Mg         6.4109514380        4.2760706112        6.4109514380
 Mg         2.1345360885        2.1824578479       -0.0000002245
 Mg         2.0925627357        2.1795070057        4.2740284089
 Mg         2.1388788673        6.4551880940        0.0000000104
 Mg         2.1351762377        6.4548105310        4.2740253962
 Mg         6.4135438915        2.1824294538        0.0000002495
 Mg         6.4554908603        2.1795059422        4.2740283368
 Mg         6.4091645295        6.4549926494        0.0000000552
 Mg         6.4128606676        6.4547982278        4.2740259833
  O        -0.0000058347        0.0174452714        2.1346780001
  O        -0.0000057331        0.0174825486        6.4133677364
  O         0.0000037462        4.2879505917        2.1343823268
  O         0.0000038150        4.2879703593        6.4136659673
  O         4.2740304489        0.0189100826        2.1309634448
  O         4.2740305257        0.0189156544        6.4170896112
  O         4.2740212834        4.2894330338        2.1294058645
  O         4.2740213353        4.2894363773        6.4186461537
  O        -0.0000032519        2.1540333208       -0.0000032519
  O         0.0000028882        2.1548398651        4.2740265814
  O        -0.0000054146        6.4291835099       -0.0000054146
  O        -0.0000014144        6.4288006131        4.2740197372
  O         4.2740265814        2.1548398651        0.0000028882
  O         4.2740197372        6.4288006131       -0.0000014144
  O         4.2740250822        6.4288403953        4.2740250822
  O         2.1346780001        0.0174452714       -0.0000058347
  O         2.1309634448        0.0189100826        4.2740304489
  O         2.1343823268        4.2879505917        0.0000037462
  O         2.1294058645        4.2894330338        4.2740212834
  O         6.4133677364        0.0174825486       -0.0000057331
  O         6.4170896112        0.0189156544        4.2740305257
  O         6.4136659673        4.2879703593        0.0000038150
  O         6.4186461537        4.2894363773        4.2740213353
  O         2.1289828034        2.1547737581        2.1289828034
  O         2.1289779801        2.1547698761        6.4190697418
  O         2.1347098611        6.4293777344        2.1347098611
  O         2.1347007282        6.4294101041        6.4133358294
  O         6.4190697418        2.1547698761        2.1289779801
  O         6.4190747195        2.1547657490        6.4190747195
  O         6.4133358294        6.4294101041        2.1347007282
  O         6.4133451453        6.4294422696        6.4133451453
      63
 i =        6, E =     -2527.4051563856
 Mg        -0.0000050004        0.0010330124       -0.0000050004
 Mg        -0.0000001891        0.0018746923        4.2740308698
 Mg        -0.0000128384        4.2766787230       -0.0000128384
 Mg        -0.0000039623        4.2776598035        4.2740203239
 Mg         4.2740308698        0.0018746923       -0.0000001891
 Mg         4.2740322205        0.0153440781        4.2740322205
 Mg         4.2740203239        4.2776598035       -0.0000039623
 Mg         4.2740256816        4.2774469043        4.2740256816
 Mg         0.0000004029        2.1812082940        2.1351909853
 Mg         0.0000002688        2.1812013755        6.4128652935
 Mg        -0.0000006904        6.4553609104        2.1367326027
 Mg        -0.0000006081        6.4553440998        6.4113100378
 Mg         4.2740274331        2.1810628581        2.0890160762
 Mg         4.2740275099        2.1810610100        6.4590380184
 Mg         4.2740269275        6.4553098712        2.1371215587
 Mg         4.2740267579        6.4553117564        6.4109308743
 Mg         2.1362294013        0.0022707645        2.1362294013
 Mg         2.1362251174        0.0022688585        6.4118239279
 Mg         2.1364078888        4.2765074235        2.1364078888
 Mg         2.1364034364        4.2765034569        6.4116428107
 Mg         6.4118239279        0.0022688585        2.1362251174
 Mg         6.4118282351        0.0022670664        6.4118282351
 Mg         6.4116428107        4.2765034569        2.1364034364
 Mg         6.4116473637        4.2764993336        6.4116473637
 Mg         2.1351909853        2.1812082940        0.0000004029
 Mg         2.0890160762        2.1810628581        4.2740274331
 Mg         2.1367326027        6.4553609104       -0.0000006904
 Mg         2.1371215587        6.4553098712        4.2740269275
 Mg         6.4128652935        2.1812013755        0.0000002688
 Mg         6.4590380184        2.1810610100        4.2740275099
 Mg         6.4113100378        6.4553440998       -0.0000006081
 Mg         6.4109308743        6.4553117564        4.2740267579
  O        -0.0000040442        0.0178945486        2.1358312098
  O        -0.0000039499        0.0179246558        6.4122162312
  O         0.0000025309        4.2882824433        2.1354550274
  O         0.0000025971        4.2882990711        6.4125948959
  O         4.2740290013        0.0196352494        2.1318425561
  O         4.2740290749        0.0196403999        6.4162105182
  O         4.2740230374        4.2895259658        2.1301961815
  O         4.2740230933        4.2895295468        6.4178566823
  O        -0.0000018815        2.1547016309       -0.0000018815
  O         0.0000022017        2.1554524427        4.2740263425
  O        -0.0000045313        6.4296838600       -0.0000045313
  O        -0.0000018599        6.4294325792        4.2740204166
  O         4.2740263425        2.1554524427        0.0000022017
  O         4.2740204166        6.4294325792       -0.0000018599
  O         4.2740254155        6.4297028505        4.2740254155
  O         2.1358312098        0.0178945486       -0.0000040442
  O         2.1318425561        0.0196352494        4.2740290013
  O         2.1354550274        4.2882824433        0.0000025309
  O         2.1301961815        4.2895259658        4.2740230374
  O         6.4122162312        0.0179246558       -0.0000039499
  O         6.4162105182        0.0196403999        4.2740290749
  O         6.4125948959        4.2882990711        0.0000025971
  O         6.4178566823        4.2895295468        4.2740230933
  O         2.1301150394        2.1551925599        2.1301150394
  O         2.1301117854        2.1551911593        6.4179379199
  O         2.1355480766        6.4298592942        2.1355480766
  O         2.1355405700        6.4298851214        6.4124982879
  O         6.4179379199        2.1551911593        2.1301117854
  O         6.4179413213        2.1551895588        6.4179413213
  O         6.4124982879        6.4298851214        2.1355405700
  O         6.4125059693        6.4299107772        6.4125059693
      63
 i =        7, E =     -2527.4054348160
 Mg        -0.0000032346        0.0026518470       -0.0000032346
 Mg         0.0000018476       -0.0017819609        4.2740024703
 Mg        -0.0000113271        4.2753323124       -0.0000113271
 Mg        -0.0000089918        4.2782685161        4.2740195966
 Mg         4.2740024703       -0.0017819609        0.0000018476
 Mg         4.2740254122        0.0041497613        4.2740254122
 Mg         4.2740195966        4.2782685161       -0.0000089918
 Mg         4.2740287962        4.2766584066        4.2740287962
 Mg         0.0000001810        2.1808383433        2.1360467256
 Mg        -0.0000000736        2.1808548335        6.4119908905
 Mg         0.0000000057        6.4558296635        2.1360085893
 Mg        -0.0000000601        6.4559539616        6.4120545327
 Mg         4.2740258821        2.1831735475        2.0906139576
 Mg         4.2740259037        2.1831736303        6.4574404247
 Mg         4.2740274904        6.4561934272        2.1376191196
 Mg         4.2740271845        6.4562023252        6.4104457082
 Mg         2.1368578790        0.0026551809        2.1368578790
 Mg         2.1368607898        0.0026565786        6.4111899993
 Mg         2.1369044614        4.2766225623        2.1369044614
 Mg         2.1368810373        4.2766286553        6.4111427670
 Mg         6.4111899993        0.0026565786        2.1368607898
 Mg         6.4111870607        0.0026578460        6.4111870607
 Mg         6.4111427670        4.2766286553        2.1368810373
 Mg         6.4111657706        4.2766342005        6.4111657706
 Mg         2.1360467256        2.1808383433        0.0000001810
 Mg         2.0906139576        2.1831735475        4.2740258821
 Mg         2.1360085893        6.4558296635        0.0000000057
 Mg         2.1376191196        6.4561934272        4.2740274904
 Mg         6.4119908905        2.1808548335       -0.0000000736
 Mg         6.4574404247        2.1831736303        4.2740259037
 Mg         6.4120545327        6.4559539616       -0.0000000601
 Mg         6.4104457082        6.4562023252        4.2740271845
  O        -0.0000020849        0.0185798401        2.1373829006
  O        -0.0000020052        0.0186007374        6.4106661101
  O         0.0000002553        4.2888437668        2.1369191984
  O         0.0000003154        4.2888560144        6.4111313222
  O         4.2740272737        0.0207167696        2.1329379286
  O         4.2740273378        0.0207213190        6.4151152806
  O         4.2740252045        4.2898167628        2.1311688253
  O         4.2740252574        4.2898205975        6.4168845002
  O        -0.0000009123        2.1556568026       -0.0000009123
  O         0.0000011208        2.1564203827        4.2740260428
  O        -0.0000041125        6.4304765346       -0.0000041125
  O        -0.0000024770        6.4304329449        4.2740216127
  O         4.2740260428        2.1564203827        0.0000011208
  O         4.2740216127        6.4304329449       -0.0000024770
  O         4.2740260604        6.4309958001        4.2740260604
  O         2.1373829006        0.0185798401       -0.0000020849
  O         2.1329379286        0.0207167696        4.2740272737
  O         2.1369191984        4.2888437668        0.0000002553
  O         2.1311688253        4.2898167628        4.2740252045
  O         6.4106661101        0.0186007374       -0.0000020052
  O         6.4151152806        0.0207213190        4.2740273378
  O         6.4111313222        4.2888560144        0.0000003154
  O         6.4168845002        4.2898205975        4.2740252574
  O         2.1315847460        2.1558732824        2.1315847460
  O         2.1315830398        2.1558748446        6.4164686502
  O         2.1366597367        6.4306619393        2.1366597367
  O         2.1366540349        6.4306792950        6.4113876812
  O         6.4164686502        2.1558748446        2.1315830398
  O         6.4164704836        2.1558762612        6.4164704836
  O         6.4113876812        6.4306792950        2.1366540349
  O         6.4113935281        6.4306965289        6.4113935281
      63
 i =        8, E =     -2527.4055299782
 Mg         0.0000005205        0.0031261072        0.0000005205
 Mg         0.0000008962       -0.0002696556        4.2740142381
 Mg        -0.0000017772        4.2755138280       -0.0000017772
 Mg        -0.0000039530        4.2782458682        4.2740253147
 Mg         4.2740142381       -0.0002696556        0.0000008962
 Mg         4.2740246033       -0.0010587949        4.2740246033
 Mg         4.2740253147        4.2782458682       -0.0000039530
 Mg         4.2740285375        4.2766348123        4.2740285375
 Mg        -0.0000002103        2.1811993417        2.1359634824
 Mg        -0.0000002891        2.1812128556        6.4120804015
 Mg         0.0000002153        6.4557912761        2.1366813773
 Mg         0.0000001502        6.4558689538        6.4113756602
 Mg         4.2740263723        2.1826786035        2.0914216263
 Mg         4.2740263464        2.1826795121        6.4566325044