# Projected DOS for atomic kind O at iteration step i = 15, E(Fermi) =     0.312382 a.u.
#     MO Eigenvalue [a.u.]      Occupation                 s                 p                 d                 f
       1         -2.436432        2.000000        0.00790670        0.04842231        0.00012159        0.00000611
       2         -2.436258        2.000000        0.00779293        0.04650297        0.00011727        0.00000589
       3         -2.435928        2.000000        0.01108861        0.03557945        0.00016491        0.00000513
       4         -2.435907        2.000000        0.00612251        0.06033786        0.00011497        0.00000792
       5         -2.435907        2.000000        0.00612251        0.06033786        0.00011497        0.00000792
       6         -2.435878        2.000000        0.00820626        0.04434853        0.00009912        0.00000369
       7         -2.434576        2.000000        0.01919435        0.03088203        0.00008521        0.00000417
       8         -2.434534        2.000000        0.01050073        0.05065979        0.00018204        0.00000668
       9         -2.434524        2.000000        0.01352506        0.04608108        0.00018998        0.00000829
      10         -2.434498        2.000000        0.01063050        0.05938532        0.00018749        0.00000949
      11         -2.434498        2.000000        0.01063046        0.05938543        0.00018749        0.00000949
      12         -2.434440        2.000000        0.00775381        0.04714357        0.00011390        0.00000466
      13         -2.434435        2.000000        0.00238172        0.08780549        0.00005895        0.00001187
      14         -2.434431        2.000000        0.01382996        0.02887624        0.00020514        0.00000451
      15         -2.434418        2.000000        0.00408576        0.06822110        0.00010748        0.00000689
      16         -2.434418        2.000000        0.00408585        0.06822118        0.00010748        0.00000689
      17         -2.434363        2.000000        0.00249864        0.08726716        0.00006212        0.00001178
      18         -2.434360        2.000000        0.00752277        0.05717842        0.00014460        0.00000597
      19         -2.434360        2.000000        0.00752274        0.05717911        0.00014460        0.00000597
      20         -2.434354        2.000000        0.00564674        0.05829452        0.00011908        0.00000522
      21         -2.434345        2.000000        0.01087135        0.02954062        0.00010692        0.00000246
      22         -2.434333        2.000000        0.00513856        0.05114886        0.00007152        0.00000514
      23         -2.434062        2.000000        0.00925962        0.05149749        0.00013280        0.00000631
      24         -2.434005        2.000000        0.01608322        0.02311620        0.00018164        0.00000423
      25         -2.433970        2.000000        0.00392754        0.07538282        0.00008676        0.00000911
      26         -2.433970        2.000000        0.00392753        0.07538284        0.00008676        0.00000911
      27         -2.433949        2.000000        0.00917770        0.05609975        0.00016012        0.00000762
      28         -2.433943        2.000000        0.00611128        0.05492289        0.00011697        0.00000481
      29         -2.433886        2.000000        0.00450282        0.07175558        0.00009666        0.00000840
      30         -2.433886        2.000000        0.00450282        0.07175558        0.00009666        0.00000840
      31         -2.433878        2.000000        0.00597566        0.04934503        0.00009273        0.00000364
      32         -2.433830        2.000000        0.00625525        0.03412060        0.00007855        0.00000118
      33         -1.216830        2.000000        0.00929695        0.00204872        0.00042979        0.00000168
      34         -1.216472        2.000000        0.00120920        0.02060419        0.00006854        0.00001437
      35         -1.216271        2.000000        0.00726668        0.02017568        0.00011981        0.00001347
      36         -1.216271        2.000000        0.00726663        0.02017572        0.00011981        0.00001347
      37         -1.216218        2.000000        0.01221682        0.01376413        0.00011724        0.00001046
      38         -1.216218        2.000000        0.01221678        0.01376418        0.00011724        0.00001046
      39         -1.216063        2.000000        0.02088841        0.00307104        0.00014501        0.00000367
      40         -1.216053        2.000000        0.00810597        0.00347719        0.00037417        0.00000159
      41         -1.215953        2.000000        0.00946997        0.00144255        0.00045515        0.00000140
      42         -1.215721        2.000000        0.00575695        0.01218062        0.00034429        0.00001539
      43         -1.215721        2.000000        0.00575695        0.01218062        0.00034429        0.00001539
      44         -1.215471        2.000000        0.00458689        0.02003416        0.00028601        0.00001397
      45         -1.215464        2.000000        0.00594591        0.01557971        0.00034278        0.00001342
      46         -1.215464        2.000000        0.00594591        0.01557972        0.00034278        0.00001342
      47         -1.215426        2.000000        0.00780491        0.01432799        0.00038337        0.00001306
      48         -1.215278        2.000000        0.00383711        0.02026517        0.00032401        0.00001772
      49         -1.215278        2.000000        0.00383709        0.02026518        0.00032401        0.00001772
      50         -1.215179        2.000000        0.00000000        0.02635263        0.00028473        0.00002056
      51         -1.215044        2.000000        0.01346611        0.01044534        0.00024885        0.00000799
      52         -1.215044        2.000000        0.01346616        0.01044526        0.00024885        0.00000799
      53         -1.214993        2.000000        0.01715886        0.00230681        0.00041987        0.00000121
      54         -1.214881        2.000000        0.01315103        0.01201855        0.00017309        0.00000988
      55         -1.214880        2.000000        0.00674156        0.02656319        0.00018617        0.00001065
      56         -1.214880        2.000000        0.00674166        0.02656296        0.00018617        0.00001065
      57         -1.214870        2.000000        0.00794963        0.02468962        0.00020848        0.00000923
      58         -1.214632        2.000000        0.00823101        0.01653425        0.00023936        0.00001254
      59         -1.214632        2.000000        0.00823103        0.01653422        0.00023936        0.00001254
      60         -1.214555        2.000000        0.00813972        0.01487012        0.00034469        0.00000941
      61         -1.214521        2.000000        0.00722257        0.01984876        0.00017543        0.00001324
      62         -1.214464        2.000000        0.01115922        0.00289648        0.00061395        0.00000232
      63         -1.214445        2.000000        0.00541843        0.02223447        0.00021919        0.00001364
      64         -1.214445        2.000000        0.00541844        0.02223448        0.00021919        0.00001364
      65         -1.214390        2.000000        0.00991133        0.00345221        0.00068499        0.00000459
      66         -1.214304        2.000000        0.00533258        0.01880826        0.00030826        0.00001456
      67         -1.214304        2.000000        0.00533260        0.01880820        0.00030827        0.00001456
      68         -1.214286        2.000000        0.00623210        0.01392212        0.00048952        0.00000951
      69         -1.214241        2.000000        0.00393670        0.01845122        0.00043285        0.00001819
      70         -1.214236        2.000000        0.00076188        0.02659836        0.00020203        0.00002160
      71         -1.214236        2.000000        0.00076189        0.02659835        0.00020203        0.00002160
      72         -1.214170        2.000000        0.00345689        0.01997757        0.00035450        0.00001990
      73         -1.214170        2.000000        0.00345689        0.01997761        0.00035450        0.00001990
      74         -1.214123        2.000000        0.00000000        0.02638263        0.00023781        0.00002325
      75         -1.214048        2.000000        0.00603570        0.00606863        0.00079822        0.00000445
      76         -1.214042        2.000000        0.00151018        0.02076730        0.00029191        0.00002255
      77         -1.214042        2.000000        0.00151003        0.02076776        0.00029190        0.00002255
      78         -1.214042        2.000000        0.00628460        0.00620108        0.00080393        0.00000496
      79         -1.214031        2.000000        0.00661454        0.00314796        0.00095216        0.00000208
      80         -1.213982        2.000000        0.00017349        0.02581511        0.00001747        0.00002970
      81         -1.213972        2.000000        0.00207376        0.01994605        0.00025489        0.00002270
      82         -1.213972        2.000000        0.00207376        0.01994602        0.00025489        0.00002270
      83         -1.213958        2.000000        0.00000000        0.02450135        0.00002401        0.00003097
      84         -1.213956        2.000000        0.00309608        0.01605297        0.00043585        0.00001770
      85         -1.213912        2.000000        0.00001514        0.02422970        0.00002432        0.00003113
      86         -1.213898        2.000000        0.00113099        0.02364350        0.00019246        0.00003064
      87         -1.213895        2.000000        0.00063792        0.02312240        0.00004301        0.00003152
      88         -1.213831        2.000000        0.00909868        0.00051652        0.00102246        0.00000271
      89         -1.213810        2.000000        0.00308907        0.01656397        0.00041615        0.00002495
      90         -1.213810        2.000000        0.00308907        0.01656398        0.00041615        0.00002495
      91         -1.213644        2.000000        0.00100923        0.02547354        0.00014074        0.00003267
      92         -1.213644        2.000000        0.00100924        0.02547353        0.00014074        0.00003267
      93         -1.213637        2.000000        0.00340018        0.00195821        0.00127891        0.00000283
      94         -1.213552        2.000000        0.00000000        0.00940237        0.00104428        0.00001218
      95         -1.213520        2.000000        0.00027103        0.01523037        0.00051081        0.00002601
      96         -1.213520        2.000000        0.00027102        0.01523040        0.00051081        0.00002601
      97         -1.213467        2.000000        0.00402058        0.00223987        0.00118131        0.00000345
      98         -1.213461        2.000000        0.00392227        0.00906903        0.00063413        0.00002216
      99         -1.213430        2.000000        0.00026876        0.01805878        0.00014905        0.00003761
     100         -1.213430        2.000000        0.00026876        0.01805882        0.00014905        0.00003761
     101         -1.213412        2.000000        0.00114450        0.01766413        0.00043698        0.00002929
     102         -1.213403        2.000000        0.00119662        0.01464888        0.00045680        0.00002710
     103         -1.213341        2.000000        0.00029561        0.01336487        0.00048071        0.00002956
     104         -1.213341        2.000000        0.00029561        0.01336497        0.00048070        0.00002956
     105         -1.213288        2.000000        0.00041275        0.01145923        0.00063629        0.00002635
     106         -1.213288        2.000000        0.00041275        0.01145934        0.00063628        0.00002635
     107         -1.213237        2.000000        0.00036926        0.00894034        0.00082682        0.00002122
     108         -1.213237        2.000000        0.00036925        0.00894033        0.00082682        0.00002122
     109         -1.213192        2.000000        0.00009939        0.01809406        0.00007310        0.00003957
     110         -1.213187        2.000000        0.00000000        0.01809297        0.00005713        0.00004105
     111         -1.213146        2.000000        0.00045361        0.00124930        0.00150822        0.00000310
     112         -1.213126        2.000000        0.00009836        0.00479465        0.00125899        0.00000921
     113         -1.213126        2.000000        0.00009836        0.00479467        0.00125899        0.00000921
     114         -1.213114        2.000000        0.00109530        0.00268565        0.00146584        0.00000185
     115         -1.213108        2.000000        0.00020118        0.01083795        0.00073603        0.00002304
     116         -1.213108        2.000000        0.00020117        0.01083799        0.00073602        0.00002304
     117         -1.213060        2.000000        0.00011490        0.00557962        0.00120147        0.00001173
     118         -1.213050        2.000000        0.00104598        0.00389534        0.00133528        0.00000625
     119         -1.213050        2.000000        0.00104597        0.00389533        0.00133528        0.00000625
     120         -1.213029        2.000000        0.00041056        0.00649411        0.00114183        0.00001222
     121         -1.212900        2.000000        0.00062726        0.00135456        0.00156910        0.00000053
     122         -1.212895        2.000000        0.00003498        0.00367115        0.00140102        0.00000551
     123         -1.212895        2.000000        0.00003498        0.00367115        0.00140102        0.00000551
     124         -1.212792        2.000000        0.00021588        0.01049627        0.00005544        0.00005155
     125         -1.212734        2.000000        0.00001876        0.00108804        0.00162033        0.00000012
     126         -1.212729        2.000000        0.00000000        0.00111820        0.00161964        0.00000015
     127         -1.212719        2.000000        0.00003697        0.01177198        0.00000709        0.00005237
     128         -1.212719        2.000000        0.00003697        0.01177198        0.00000709        0.00005237
     129         -0.395286        2.000000        0.40184152        0.00029694        0.00002467        0.00000092
     130         -0.372273        2.000000        0.39530283        0.01727253        0.00010546        0.00000984
     131         -0.371126        2.000000        0.39658397        0.01747462        0.00010887        0.00000857
     132         -0.370224        2.000000        0.39724127        0.01619590        0.00009898        0.00000814
     133         -0.370224        2.000000        0.39724128        0.01619590        0.00009898        0.00000814
     134         -0.369980        2.000000        0.39706440        0.01601427        0.00010127        0.00000800
     135         -0.367035        2.000000        0.39985773        0.01542731        0.00027588        0.00000961
     136         -0.356988        2.000000        0.40661956        0.01144424        0.00065571        0.00001835
     137         -0.355538        2.000000        0.40900469        0.01018968        0.00072846        0.00001597
     138         -0.354896        2.000000        0.41047794        0.01097194        0.00069536        0.00001659
     139         -0.354896        2.000000        0.41047794        0.01097194        0.00069536        0.00001659
     140         -0.354732        2.000000        0.41131708        0.01034342        0.00073666        0.00001557
     141         -0.354636        2.000000        0.40913663        0.01152388        0.00069158        0.00001580
     142         -0.354458        2.000000        0.40967057        0.01107188        0.00069484        0.00001565
     143         -0.354458        2.000000        0.40967057        0.01107188        0.00069484        0.00001565
     144         -0.354175        2.000000        0.40981752        0.01025389        0.00071048        0.00001635
     145         -0.354175        2.000000        0.40981752        0.01025389        0.00071048        0.00001635
     146         -0.354159        2.000000        0.40959116        0.01027775        0.00069781        0.00001691
     147         -0.351978        2.000000        0.42021203        0.00281884        0.00164831        0.00000450
     148         -0.351447        2.000000        0.42304026        0.00112562        0.00186029        0.00000185
     149         -0.351447        2.000000        0.42304026        0.00112562        0.00186029        0.00000185
     150         -0.351343        2.000000        0.42293228        0.00121527        0.00185607        0.00000207
     151         -0.348819        2.000000        0.41710282        0.00467395        0.00028988        0.00001065
     152         -0.344136        2.000000        0.42670800        0.00010525        0.00003055        0.00000347
     153         -0.344006        2.000000        0.42752484        0.00003950        0.00001956        0.00000184
     154         -0.342294        2.000000        0.42141933        0.00032200        0.00010941        0.00001587
     155         -0.342019        2.000000        0.42377472        0.00016065        0.00011208        0.00001080
     156         -0.341748        2.000000        0.42112111        0.00007205        0.00012163        0.00001822
     157         -0.341720        2.000000        0.42121055        0.00007654        0.00012424        0.00001813
     158         -0.341720        2.000000        0.42121055        0.00007654        0.00012424        0.00001813
     159         -0.341544        2.000000        0.42186601        0.00008060        0.00010290        0.00001651
     160          0.067163        2.000000        0.00001933        0.46805861        0.00000166        0.00001313
     161          0.068639        2.000000        0.00022920        0.47088860        0.00001381        0.00001281
     162          0.068639        2.000000        0.00022920        0.47088860        0.00001381        0.00001281
     163          0.068656        2.000000        0.00036385        0.47064933        0.00000967        0.00001293
     164          0.087963        2.000000        0.00124344        0.61964872        0.00001495        0.00000322
     165          0.087963        2.000000        0.00124344        0.61964873        0.00001495        0.00000322
     166          0.088097        2.000000        0.00094586        0.62075785        0.00001591        0.00000307
     167          0.094117        2.000000        0.01913941        0.43650902        0.00041824        0.00001900
     168          0.104710        2.000000        0.03413936        0.47589050        0.00025034        0.00002831
     169          0.105561        2.000000        0.03425891        0.47613003        0.00024480        0.00002844
     170          0.105561        2.000000        0.03425891        0.47613003        0.00024480        0.00002844
     171          0.105736        2.000000        0.03372871        0.47609685        0.00020688        0.00002965
     172          0.106036        2.000000        0.03412441        0.47641564        0.00021097        0.00002961
     173          0.106265        2.000000        0.03410778        0.47646405        0.00022273        0.00002939
     174          0.106339        2.000000        0.03382704        0.47653319        0.00021951        0.00002953
     175          0.106339        2.000000        0.03382705        0.47653320        0.00021951        0.00002953
     176          0.110344        2.000000        0.02852917        0.49165359        0.00040323        0.00002358
     177          0.110344        2.000000        0.02852917        0.49165358        0.00040323        0.00002358
     178          0.111709        2.000000        0.02994307        0.48965722        0.00037778        0.00002422
     179          0.125321        2.000000        0.00060175        0.56578253        0.00133702        0.00000430
     180          0.125509        2.000000        0.00015118        0.56929824        0.00131147        0.00000433
     181          0.125509        2.000000        0.00015118        0.56929824        0.00131147        0.00000433
     182          0.126082        2.000000        0.00000000        0.56726411        0.00138471        0.00000409
     183          0.126539        2.000000        0.00091695        0.56601308        0.00132608        0.00000415
     184          0.126539        2.000000        0.00091695        0.56601308        0.00132608        0.00000415
     185          0.127100        2.000000        0.00027103        0.56568309        0.00122681        0.00000413
     186          0.127100        2.000000        0.00027103        0.56568309        0.00122681        0.00000413
     187          0.127115        2.000000        0.00002727        0.56800024        0.00117136        0.00000414
     188          0.128576        2.000000        0.07582488        0.46328707        0.00012962        0.00001993
     189          0.131435        2.000000        0.03541944        0.52999982        0.00081800        0.00001037
     190          0.131435        2.000000        0.03541945        0.52999982        0.00081800        0.00001037
     191          0.132061        2.000000        0.03510276        0.53132565        0.00083131        0.00000985
     192          0.136127        2.000000        0.08596500        0.48671085        0.00009950        0.00001670
     193          0.136378        2.000000        0.08606261        0.48667461        0.00010216        0.00001641
     194          0.141854        2.000000        0.04655830        0.52257512        0.00078268        0.00001494
     195          0.141879        2.000000        0.04523980        0.52336143        0.00079955        0.00001549
     196          0.141879        2.000000        0.04523980        0.52336143        0.00079955        0.00001549
     197          0.159200        2.000000        0.00000000        0.57667446        0.00228885        0.00000829
     198          0.160013        2.000000        0.00000719        0.57833919        0.00213443        0.00000851
     199          0.160097        2.000000        0.00013813        0.57665472        0.00225940        0.00000904
     200          0.160097        2.000000        0.00013813        0.57665472        0.00225940        0.00000904
     201          0.160470        2.000000        0.00008180        0.57811264        0.00199429        0.00000888
     202          0.160470        2.000000        0.00008180        0.57811264        0.00199429        0.00000888
     203          0.160562        2.000000        0.00001649        0.57788735        0.00222586        0.00000858
     204          0.160759        2.000000        0.00000000        0.57606952        0.00231342        0.00000842
     205          0.161646        2.000000        0.00000451        0.57822673        0.00214038        0.00000845
     206          0.162762        2.000000        0.00178319        0.56821628        0.00176267        0.00002877
     207          0.162815        2.000000        0.00180271        0.56867163        0.00178586        0.00002729
     208          0.162815        2.000000        0.00180271        0.56867163        0.00178586        0.00002729
     209          0.167181        2.000000        0.00001136        0.56413134        0.00151511        0.00005190
     210          0.167966        2.000000        0.00004192        0.56521833        0.00137513        0.00005159
     211          0.168291        2.000000        0.00001570        0.56537470        0.00138387        0.00005145
     212          0.175492        2.000000        0.00135826        0.58454840        0.00111317        0.00006998
     213          0.175492        2.000000        0.00135826        0.58454840        0.00111317        0.00006998
     214          0.175639        2.000000        0.00157376        0.58442131        0.00111901        0.00006859
     215          0.182525        2.000000        0.00000249        0.60731677        0.00000770        0.00012920
     216          0.182525        2.000000        0.00000249        0.60731677        0.00000770        0.00012920
     217          0.182555        2.000000        0.00003259        0.60738090        0.00000361        0.00013035
     218          0.187466        2.000000        0.00138110        0.62240115        0.00039143        0.00008981
     219          0.187466        2.000000        0.00138110        0.62240115        0.00039143        0.00008981
     220          0.187810        2.000000        0.00102742        0.62094602        0.00039671        0.00009331
     221          0.202690        2.000000        0.00005719        0.64383451        0.00073460        0.00007478
     222          0.202771        2.000000        0.00003170        0.65745031        0.00059109        0.00006748
     223          0.202771        2.000000        0.00003170        0.65745031        0.00059109        0.00006748
     224          0.203590        2.000000        0.00005484        0.64816442        0.00070396        0.00007364
     225          0.203590        2.000000        0.00005484        0.64816443        0.00070396        0.00007364
     226          0.203905        2.000000        0.00000000        0.63794473        0.00075747        0.00009512
     227          0.204178        2.000000        0.00002532        0.63912890        0.00075866        0.00009341
     228          0.204178        2.000000        0.00002532        0.63912890        0.00075866        0.00009341
     229          0.204476        2.000000        0.00002111        0.63885643        0.00066564        0.00009573
     230          0.204476        2.000000        0.00002111        0.63885643        0.00066564        0.00009573
     231          0.204642        2.000000        0.00000150        0.63873976        0.00065635        0.00009706
     232          0.205242        2.000000        0.00004904        0.66723620        0.00055918        0.00005989
     233          0.207367        2.000000        0.00001804        0.70491576        0.00046260        0.00002124
     234          0.207695        2.000000        0.00001956        0.70780729        0.00037573        0.00002201
     235          0.207695        2.000000        0.00001956        0.70780728        0.00037573        0.00002201
     236          0.207991        2.000000        0.00001827        0.70590274        0.00057929        0.00000946
     237          0.208285        2.000000        0.00002435        0.70592760        0.00050187        0.00000961
     238          0.208408        2.000000        0.00000000        0.71807036        0.00018772        0.00001767
     239          0.208446        2.000000        0.00002186        0.70590154        0.00059401        0.00001163
     240          0.208446        2.000000        0.00002186        0.70590157        0.00059401        0.00001163
     241          0.208461        2.000000        0.00003105        0.72415950        0.00000539        0.00002011
     242          0.208478        2.000000        0.00000000        0.71024094        0.00043067        0.00001409
     243          0.208496        2.000000        0.00003280        0.70733087        0.00050391        0.00001022
     244          0.208706        2.000000        0.00001058        0.71551335        0.00020304        0.00001884
     245          0.208742        2.000000        0.00003066        0.71430756        0.00025023        0.00001679
     246          0.208742        2.000000        0.00003066        0.71430753        0.00025023        0.00001679
     247          0.208761        2.000000        0.00004715        0.71392022        0.00027008        0.00001450
     248          0.209230        2.000000        0.00000077        0.71504804        0.00029127        0.00001452
     249          0.209230        2.000000        0.00000077        0.71504804        0.00029127        0.00001452
     250          0.227994        2.000000        0.00013459        0.67450159        0.00006198        0.00005448
     251          0.227994        2.000000        0.00013459        0.67450159        0.00006198        0.00005448
     252          0.228097        2.000000        0.00021220        0.67515206        0.00005530        0.00005323
     253          0.312382        2.000000        0.13642469        0.16997772        0.00359752        0.00005837
     254          0.413172        0.000000        0.57545032        0.06339703        0.00239468        0.00001708
     255          0.469259        0.000000        0.19729787        0.25845679        0.00573007        0.00006530
     256          0.469259        0.000000        0.19729789        0.25845678        0.00573007        0.00006530
     257          0.470702        0.000000        0.20282365        0.26079869        0.00555519        0.00006356
     258          0.510003        0.000000        0.32643737        0.00013437        0.02609138        0.00000066
     259          0.510003        0.000000        0.32654998        0.00024957        0.02603297        0.00000064