# Projected DOS for atomic kind Mg at iteration step i = 1, E(Fermi) =     0.314053 a.u.
#     MO Eigenvalue [a.u.]      Occupation                 s                 p                 d                 f
       1         -2.435597        2.000000        0.91002721        0.02360099        0.01084931        0.00040894
       2         -2.435559        2.000000        0.90955525        0.02388940        0.01109436        0.00041407
       3         -2.435276        2.000000        0.91115450        0.02707622        0.00783290        0.00033309
       4         -2.435242        2.000000        0.88992517        0.02455710        0.01281371        0.00050587
       5         -2.435172        2.000000        0.92289979        0.03094380        0.00783149        0.00017398
       6         -2.435134        2.000000        0.89382596        0.02500183        0.01410955        0.00063745
       7         -2.435134        2.000000        0.89378178        0.02498962        0.01413933        0.00063854
       8         -2.435124        2.000000        0.90197419        0.02802998        0.00879878        0.00044185
       9         -2.435051        2.000000        0.90523168        0.02121290        0.00980237        0.00056325
      10         -2.435046        2.000000        0.88301624        0.02449754        0.01427829        0.00054852
      11         -2.435046        2.000000        0.88305619        0.02448966        0.01427106        0.00054853
      12         -2.434978        2.000000        0.93856288        0.00514810        0.01499948        0.00029226
      13         -2.434513        2.000000        0.92544527        0.02080153        0.00924642        0.00022996
      14         -2.434503        2.000000        0.89095142        0.02000946        0.01431799        0.00043280
      15         -2.434499        2.000000        0.89537592        0.03117049        0.00812144        0.00058267
      16         -2.434492        2.000000        0.88886880        0.02371373        0.01277916        0.00050124
      17         -2.434414        2.000000        0.90960021        0.03231879        0.00550354        0.00022428
      18         -2.434367        2.000000        0.88269961        0.03499813        0.01021281        0.00055095
      19         -2.434367        2.000000        0.88266129        0.03523357        0.01012293        0.00055301
      20         -2.434341        2.000000        0.87567807        0.01505238        0.01891687        0.00045119
      21         -2.434334        2.000000        0.90197250        0.03778267        0.00787645        0.00034078
      22         -2.434310        2.000000        0.92493038        0.01898702        0.01551153        0.00016606
      23         -2.434301        2.000000        0.90164856        0.01249403        0.01248873        0.00056439
      24         -2.434301        2.000000        0.90163285        0.01257146        0.01251063        0.00056186
      25         -2.434283        2.000000        0.88073525        0.02936100        0.01133226        0.00091483
      26         -2.434257        2.000000        0.91251223        0.00898415        0.01613409        0.00036356
      27         -2.434249        2.000000        0.92663224        0.00623714        0.01708949        0.00032599
      28         -2.434244        2.000000        0.92649250        0.00760305        0.01016636        0.00038024
      29         -2.433873        2.000000        0.91358525        0.02734734        0.00885330        0.00032506
      30         -2.433848        2.000000        0.88845545        0.02007445        0.01354644        0.00049722
      31         -2.433848        2.000000        0.88849258        0.02010642        0.01353287        0.00049685
      32         -2.433803        2.000000        0.92840097        0.01036930        0.01263720        0.00033477
      33         -1.216139        2.000000        0.00168504        0.97843732        0.00136467        0.00046998
      34         -1.215812        2.000000        0.00151373        0.97150664        0.00128110        0.00051226
      35         -1.215785        2.000000        0.00034208        0.97161015        0.00107879        0.00051754
      36         -1.215785        2.000000        0.00034207        0.97161030        0.00107877        0.00051754
      37         -1.215668        2.000000        0.00366126        0.96862353        0.00599163        0.00094876
      38         -1.215634        2.000000        0.00065492        0.95437902        0.00258648        0.00046968
      39         -1.215634        2.000000        0.00065491        0.95437889        0.00258648        0.00046968
      40         -1.215496        2.000000        0.00459102        0.96501393        0.00463178        0.00073847
      41         -1.215355        2.000000        0.00887778        0.96949670        0.00664802        0.00078133
      42         -1.215269        2.000000        0.00152501        0.95573445        0.00701042        0.00085812
      43         -1.215222        2.000000        0.00272473        0.96191347        0.00974665        0.00120472
      44         -1.215222        2.000000        0.00272447        0.96191299        0.00974689        0.00120471
      45         -1.215204        2.000000        0.00672162        0.96591782        0.00782546        0.00089848
      46         -1.215204        2.000000        0.00672151        0.96591764        0.00782550        0.00089849
      47         -1.215165        2.000000        0.00738517        0.97192961        0.00576317        0.00094514
      48         -1.215077        2.000000        0.00489370        0.96256431        0.00688250        0.00127697
      49         -1.215077        2.000000        0.00489362        0.96256422        0.00688245        0.00127698
      50         -1.214994        2.000000        0.00969123        0.96643538        0.00637089        0.00084648
      51         -1.214994        2.000000        0.00969166        0.96643565        0.00637070        0.00084643
      52         -1.214882        2.000000        0.00682518        0.96288272        0.00798409        0.00109454
      53         -1.214822        2.000000        0.00658776        0.96503929        0.00657629        0.00101472
      54         -1.214780        2.000000        0.00000011        0.95507038        0.01083756        0.00107922
      55         -1.214779        2.000000        0.00822798        0.96537206        0.00686917        0.00097533
      56         -1.214717        2.000000        0.00108155        0.95973240        0.00842398        0.00121396
      57         -1.214717        2.000000        0.00108883        0.95975765        0.00842217        0.00121247
      58         -1.214712        2.000000        0.00284602        0.96684337        0.00825055        0.00092743
      59         -1.214712        2.000000        0.00283802        0.96681770        0.00825308        0.00092883
      60         -1.214666        2.000000        0.00082434        0.95750678        0.01021435        0.00112276
      61         -1.214618        2.000000        0.00915770        0.97166638        0.00530192        0.00054668
      62         -1.214584        2.000000        0.00209255        0.95594738        0.00765852        0.00124039
      63         -1.214584        2.000000        0.00209266        0.95594770        0.00765843        0.00124037
      64         -1.214563        2.000000        0.00033783        0.95715635        0.00999337        0.00119417
      65         -1.214563        2.000000        0.00033524        0.95715079        0.00999567        0.00119418
      66         -1.214540        2.000000        0.00279867        0.96402372        0.00750143        0.00115865
      67         -1.214390        2.000000        0.00187236        0.95564130        0.00988958        0.00131574
      68         -1.214276        2.000000        0.01054062        0.97481877        0.00323683        0.00040025
      69         -1.214230        2.000000        0.00901977        0.97326519        0.00462677        0.00097140
      70         -1.214229        2.000000        0.00255695        0.96353712        0.00941296        0.00106884
      71         -1.214229        2.000000        0.00264125        0.96366989        0.00934625        0.00106896
      72         -1.214192        2.000000        0.00265573        0.96809180        0.00390714        0.00266384
      73         -1.214192        2.000000        0.00268426        0.96803952        0.00386329        0.00266812
      74         -1.214190        2.000000        0.00109499        0.97094216        0.00680806        0.00228663
      75         -1.214100        2.000000        0.00530661        0.97241306        0.00673253        0.00085936
      76         -1.214100        2.000000        0.00530609        0.97241323        0.00673340        0.00085934
      77         -1.214037        2.000000        0.01291896        0.96993257        0.00150339        0.00055608
      78         -1.214013        2.000000        0.00000004        0.96105335        0.01120119        0.00083723
      79         -1.213964        2.000000        0.00621692        0.98491341        0.00154489        0.00140372
      80         -1.213950        2.000000        0.00583300        0.97297729        0.00940101        0.00021409
      81         -1.213939        2.000000        0.00075590        0.96592913        0.00975125        0.00119069
      82         -1.213939        2.000000        0.00083142        0.96599603        0.00973294        0.00118470
      83         -1.213937        2.000000        0.00008542        0.96205220        0.01129259        0.00077117
      84         -1.213929        2.000000        0.00093754        0.96644948        0.00847077        0.00156344
      85         -1.213929        2.000000        0.00094997        0.96645451        0.00848690        0.00155501
      86         -1.213894        2.000000        0.00000701        0.96167844        0.01301660        0.00041796
      87         -1.213858        2.000000        0.00671696        0.97439669        0.00834429        0.00018958
      88         -1.213824        2.000000        0.00191247        0.97782313        0.01089101        0.00042437
      89         -1.213816        2.000000        0.00000314        0.96163229        0.01316926        0.00040746
      90         -1.213805        2.000000        0.00002051        0.96165246        0.01299956        0.00043524
      91         -1.213804        2.000000        0.00036896        0.96842792        0.00605709        0.00219576
      92         -1.213803        2.000000        0.00037369        0.96850824        0.00595170        0.00222530
      93         -1.213783        2.000000        0.00000000        0.99250428        0.00181056        0.00228629
      94         -1.213776        2.000000        0.00090376        0.96721427        0.00424807        0.00312091
      95         -1.213660        2.000000        0.00082149        0.97604141        0.00472704        0.00151571
      96         -1.213585        2.000000        0.00008222        0.97910569        0.00398445        0.00186180
      97         -1.213585        2.000000        0.00008390        0.97909978        0.00398705        0.00186104
      98         -1.213511        2.000000        0.00053198        0.97573362        0.00333661        0.00225988
      99         -1.213511        2.000000        0.00053228        0.97573148        0.00333727        0.00225972
     100         -1.213467        2.000000        0.00006282        0.97328884        0.00702040        0.00190503
     101         -1.213451        2.000000        0.00007665        0.98158227        0.00487598        0.00130586
     102         -1.213451        2.000000        0.00007635        0.98158171        0.00487625        0.00130579
     103         -1.213399        2.000000        0.00139615        0.98743726        0.00424747        0.00142151
     104         -1.213331        2.000000        0.00020136        0.98256295        0.00391565        0.00165851
     105         -1.213294        2.000000        0.00019948        0.97596770        0.00523111        0.00147192
     106         -1.213294        2.000000        0.00019787        0.97596036        0.00523221        0.00147145
     107         -1.213287        2.000000        0.00000011        0.97626078        0.00545322        0.00146932
     108         -1.213277        2.000000        0.00196655        0.98740281        0.00314882        0.00218805
     109         -1.213248        2.000000        0.00001389        0.98107884        0.00414156        0.00184496
     110         -1.213239        2.000000        0.00014060        0.98488962        0.00328202        0.00188084
     111         -1.213239        2.000000        0.00013634        0.98476413        0.00331227        0.00187605
     112         -1.213205        2.000000        0.00007662        0.98563380        0.00302141        0.00176094
     113         -1.213205        2.000000        0.00007686        0.98563773        0.00302111        0.00176067
     114         -1.213183        2.000000        0.00046542        0.99060442        0.00316024        0.00139350
     115         -1.213140        2.000000        0.00024892        0.98759406        0.00222215        0.00264154
     116         -1.213124        2.000000        0.00074108        0.98910153        0.00296587        0.00141131
     117         -1.213124        2.000000        0.00074046        0.98910073        0.00296485        0.00141247
     118         -1.213098        2.000000        0.00013704        0.98994861        0.00174806        0.00251515
     119         -1.213098        2.000000        0.00013675        0.98994701        0.00174794        0.00251561
     120         -1.213032        2.000000        0.00004187        0.98993124        0.00245735        0.00096788
     121         -1.212844        2.000000        0.00012218        0.98270483        0.00431379        0.00150299
     122         -1.212820        2.000000        0.00000001        0.99140603        0.00204698        0.00211832
     123         -1.212789        2.000000        0.00015985        0.98588085        0.00340348        0.00191796
     124         -1.212789        2.000000        0.00015902        0.98587853        0.00340547        0.00191877
     125         -1.212783        2.000000        0.00032510        0.99238543        0.00200331        0.00203753
     126         -1.212772        2.000000        0.00004421        0.98628317        0.00175040        0.00080661
     127         -1.212772        2.000000        0.00004391        0.98628964        0.00175146        0.00080809
     128         -1.212754        2.000000        0.00146815        0.98648664        0.00131790        0.00067954
     129         -0.395659        2.000000        0.58133599        0.00849918        0.00397369        0.00443016
     130         -0.372217        2.000000        0.17250294        0.22601035        0.13038111        0.05853254
     131         -0.371275        2.000000        0.17751974        0.22465067        0.12701676        0.05722699
     132         -0.370425        2.000000        0.17268731        0.22791175        0.12950005        0.05676904
     133         -0.370296        2.000000        0.17436235        0.22731095        0.12814335        0.05675664
     134         -0.370295        2.000000        0.17435684        0.22731313        0.12814800        0.05675569
     135         -0.367080        2.000000        0.14277889        0.23375399        0.12980937        0.07805375
     136         -0.357101        2.000000        0.04809347        0.22056668        0.18231958        0.13055447
     137         -0.356771        2.000000        0.04368645        0.23118571        0.16976085        0.13628964
     138         -0.355397        2.000000        0.03634133        0.25315497        0.14166915        0.14864071
     139         -0.355397        2.000000        0.03634132        0.25315517        0.14166878        0.14864088
     140         -0.354827        2.000000        0.04439249        0.22334940        0.17959524        0.13198346
     141         -0.354537        2.000000        0.04123762        0.23611698        0.16126637        0.13911746
     142         -0.354381        2.000000        0.04601644        0.22378568        0.17691057        0.13232668
     143         -0.354380        2.000000        0.04601533        0.22378758        0.17690916        0.13232627
     144         -0.354251        2.000000        0.04453235        0.22406307        0.17666031        0.13381213
     145         -0.354251        2.000000        0.04453290        0.22406499        0.17665754        0.13381192
     146         -0.353936        2.000000        0.04696187        0.22274161        0.17662925        0.13274282
     147         -0.352324        2.000000        0.01381182        0.32338289        0.05531526        0.18319138
     148         -0.351340        2.000000        0.00373677        0.35566545        0.01475772        0.19963617
     149         -0.350819        2.000000        0.00911196        0.33815969        0.03480430        0.18983694
     150         -0.350819        2.000000        0.00911198        0.33815955        0.03480443        0.18983693
     151         -0.348566        2.000000        0.02348564        0.07567982        0.42568165        0.05284460
     152         -0.344728        2.000000        0.01093591        0.01601580        0.52020428        0.02936517
     153         -0.344253        2.000000        0.01207981        0.01492194        0.52284828        0.02538163
     154         -0.342874        2.000000        0.00849229        0.03269873        0.48065183        0.05360309
     155         -0.341934        2.000000        0.00520143        0.02978246        0.48162629        0.05874241
     156         -0.341851        2.000000        0.00407382        0.02949696        0.48124961        0.06231350
     157         -0.341629        2.000000        0.00064608        0.04087498        0.45242202        0.08420972
     158         -0.341627        2.000000        0.00052052        0.04094235        0.45214628        0.08464503
     159         -0.341613        2.000000        0.00119720        0.04064464        0.45343478        0.08238882
     160          0.067130        2.000000        0.18884015        0.00014640        0.34295192        0.00009665
     161          0.068259        2.000000        0.18372807        0.00777385        0.33615304        0.00261345
     162          0.068411        2.000000        0.18404843        0.00799258        0.33583990        0.00228885
     163          0.068411        2.000000        0.18404859        0.00799220        0.33584027        0.00228886
     164          0.087461        2.000000        0.00525307        0.34282003        0.01162952        0.01782960
     165          0.087541        2.000000        0.00713656        0.34052136        0.01179724        0.01839803
     166          0.087541        2.000000        0.00713538        0.34052229        0.01179805        0.01839755
     167          0.095655        2.000000        0.15031904        0.14813949        0.18883660        0.05321410
     168          0.104705        2.000000        0.13269973        0.06738590        0.21347482        0.07663065
     169          0.105228        2.000000        0.13371523        0.06675202        0.21327024        0.07652527
     170          0.105228        2.000000        0.13371526        0.06675197        0.21327026        0.07652529
     171          0.105687        2.000000        0.13463172        0.06682197        0.21307384        0.07526025
     172          0.105807        2.000000        0.13446162        0.06676639        0.21256343        0.07573769
     173          0.106118        2.000000        0.13386047        0.06759666        0.21128433        0.07625172
     174          0.106256        2.000000        0.13393470        0.06743963        0.21134610        0.07634188
     175          0.106257        2.000000        0.13393509        0.06743969        0.21134499        0.07634174
     176          0.110404        2.000000        0.11339487        0.09068452        0.20250075        0.07289809
     177          0.110404        2.000000        0.11339494        0.09068445        0.20250069        0.07289818
     178          0.111529        2.000000        0.11592865        0.08692889        0.20352111        0.07384584
     179          0.125177        2.000000        0.00101995        0.20085483        0.19001449        0.04047623
     180          0.125372        2.000000        0.00021705        0.20337519        0.18769386        0.03970300
     181          0.125372        2.000000        0.00021708        0.20337511        0.18769391        0.03970301
     182          0.126067        2.000000        0.00000005        0.20295284        0.18784719        0.04050153
     183          0.126324        2.000000        0.00052854        0.20106917        0.18936773        0.04094374
     184          0.126324        2.000000        0.00052846        0.20106945        0.18936756        0.04094361
     185          0.126931        2.000000        0.00011732        0.19884699        0.19248202        0.04003436
     186          0.126931        2.000000        0.00011162        0.19885082        0.19248604        0.04003040
     187          0.127375        2.000000        0.00051264        0.19842831        0.19231772        0.03979363
     188          0.127923        2.000000        0.10470816        0.12831974        0.11463923        0.11470542
     189          0.130988        2.000000        0.03964485        0.15290908        0.16148786        0.07941097
     190          0.130988        2.000000        0.03964486        0.15290902        0.16148789        0.07941093
     191          0.131267        2.000000        0.03487406        0.15759808        0.16388850        0.07712317
     192          0.136132        2.000000        0.08304673        0.10252768        0.11504275        0.12670343
     193          0.136206        2.000000        0.08320138        0.10292785        0.11481103        0.12637267
     194          0.141938        2.000000        0.05205963        0.12639057        0.15615881        0.09582510
     195          0.142425        2.000000        0.04976786        0.13015695        0.15645204        0.09454684
     196          0.142425        2.000000        0.04976783        0.13015691        0.15645214        0.09454679
     197          0.159539        2.000000        0.00000005        0.13983583        0.23007578        0.05132016
     198          0.159985        2.000000        0.00022295        0.13889066        0.22821127        0.05391709
     199          0.159985        2.000000        0.00022291        0.13889070        0.22821132        0.05391703
     200          0.160296        2.000000        0.00002973        0.13723664        0.23212252        0.05134009
     201          0.160316        2.000000        0.00000002        0.13648165        0.23067586        0.05413830
     202          0.160752        2.000000        0.00044675        0.13480789        0.23286536        0.05123865
     203          0.160752        2.000000        0.00044674        0.13480797        0.23286529        0.05123863
     204          0.160786        2.000000        0.00001047        0.13669452        0.23146847        0.05104709
     205          0.161456        2.000000        0.00003107        0.13455909        0.23093167        0.05337941
     206          0.162905        2.000000        0.06848590        0.06910759        0.17823152        0.11276760
     207          0.163324        2.000000        0.07200757        0.06479709        0.18155138        0.10998961
     208          0.163324        2.000000        0.07200756        0.06479709        0.18155129        0.10998968
     209          0.167019        2.000000        0.13712349        0.00005889        0.14122852        0.15628702
     210          0.168114        2.000000        0.13671073        0.00017297        0.13626284        0.15996574
     211          0.168417        2.000000        0.13668404        0.00012591        0.13586941        0.16026583
     212          0.173729        2.000000        0.04573657        0.08483802        0.10943824        0.17282388
     213          0.173729        2.000000        0.04573649        0.08483815        0.10943800        0.17282406
     214          0.175907        2.000000        0.05408950        0.07299283        0.11080047        0.17493583
     215          0.182461        2.000000        0.00004340        0.12578737        0.00072958        0.26602392
     216          0.182541        2.000000        0.00000474        0.12584180        0.00073299        0.26599606
     217          0.182541        2.000000        0.00000474        0.12584180        0.00073298        0.26599609
     218          0.187593        2.000000        0.00725145        0.09835720        0.07619717        0.19641919
     219          0.188083        2.000000        0.01133626        0.09126301        0.08178895        0.19194733
     220          0.188083        2.000000        0.01133625        0.09126315        0.08178829        0.19194791
     221          0.202726        2.000000        0.00004829        0.07460096        0.08174467        0.19861919
     222          0.203170        2.000000        0.00005042        0.07251986        0.09008855        0.18847957
     223          0.203170        2.000000        0.00005041        0.07252305        0.09008057        0.18848738
     224          0.203542        2.000000        0.00024519        0.06578742        0.11235553        0.16322194
     225          0.203542        2.000000        0.00024568        0.06576219        0.11242239        0.16315477
     226          0.203554        2.000000        0.00000051        0.08147112        0.07051311        0.20562403
     227          0.204019        2.000000        0.00001468        0.08394283        0.06316919        0.21312627
     228          0.204019        2.000000        0.00001468        0.08394353        0.06316807        0.21312707
     229          0.204428        2.000000        0.00001448        0.08315374        0.06348243        0.21198160
     230          0.204428        2.000000        0.00001447        0.08315461        0.06348050        0.21198348
     231          0.204775        2.000000        0.00002618        0.08503911        0.05860398        0.21657153
     232          0.205169        2.000000        0.00025563        0.05263401        0.14033120        0.13702770
     233          0.206749        2.000000        0.00013710        0.00858024        0.22992949        0.05393970
     234          0.206749        2.000000        0.00013711        0.00858062        0.22992949        0.05393928
     235          0.206921        2.000000        0.00000640        0.01234073        0.22402263        0.05905190
     236          0.207005        2.000000        0.00006746        0.00522845        0.24781289        0.03376974
     237          0.207829        2.000000        0.00004697        0.00746823        0.22366521        0.06274036
     238          0.208418        2.000000        0.00017931        0.00760860        0.21954767        0.06609787
     239          0.208458        2.000000        0.00007301        0.00466884        0.25100948        0.02743833
     240          0.208458        2.000000        0.00007297        0.00466826        0.25101939        0.02742586
     241          0.208470        2.000000        0.00000002        0.00090778        0.27076446        0.00590851
     242          0.208533        2.000000        0.00000015        0.00004557        0.27564833        0.00027754
     243          0.208583        2.000000        0.00004973        0.00767534        0.21829939        0.06755040
     244          0.208703        2.000000        0.00000280        0.01133386        0.21076071        0.07511964
     245          0.208703        2.000000        0.00000281        0.01133404        0.21075052        0.07513263
     246          0.208836        2.000000        0.00000000        0.01188276        0.21152251        0.07351784
     247          0.209097        2.000000        0.00002662        0.00366274        0.25176063        0.02830725
     248          0.209097        2.000000        0.00002451        0.00356686        0.25195557        0.02820776
     249          0.209101        2.000000        0.00005877        0.00517545        0.24843142        0.03024413
     250          0.227763        2.000000        0.00060041        0.04693459        0.01268249        0.26451641
     251          0.227863        2.000000        0.00055596        0.04782979        0.01179042        0.26502587
     252          0.227863        2.000000        0.00055596        0.04782980        0.01179047        0.26502580
     253          0.314053        2.000000        0.15812625        0.20838971        0.26955528        0.05218994
     254          0.413415        0.000000        0.21442095        0.07733401        0.06134378        0.00874882
     255          0.469646        0.000000        0.10925855        0.15357848        0.17881935        0.09416445
     256          0.469646        0.000000        0.10925859        0.15357845        0.17881930        0.09416444
     257          0.471193        0.000000        0.11535554        0.15133828        0.16725404        0.09176119
     258          0.510001        0.000000        0.00003219        0.39634442        0.00122282        0.24975716
     259          0.510001        0.000000        0.00003132        0.39634669        0.00122240        0.24975870