# Projected DOS for atomic kind O at iteration step i = 1, E(Fermi) =     0.314053 a.u.
#     MO Eigenvalue [a.u.]      Occupation                 s                 p                 d                 f
       1         -2.435597        2.000000        0.00793406        0.04705277        0.00012099        0.00000573
       2         -2.435559        2.000000        0.00770056        0.04722307        0.00011757        0.00000572
       3         -2.435276        2.000000        0.01499384        0.03845864        0.00014548        0.00000533
       4         -2.435242        2.000000        0.00772624        0.06434062        0.00012269        0.00000859
       5         -2.435172        2.000000        0.01604689        0.02189082        0.00020823        0.00000500
       6         -2.435134        2.000000        0.00637393        0.05992575        0.00011764        0.00000789
       7         -2.435134        2.000000        0.00635975        0.05996547        0.00011760        0.00000790
       8         -2.435124        2.000000        0.00945578        0.05116292        0.00013090        0.00000559
       9         -2.435051        2.000000        0.00608500        0.05698464        0.00011486        0.00000531
      10         -2.435046        2.000000        0.00601701        0.07151174        0.00012098        0.00000968
      11         -2.435046        2.000000        0.00601676        0.07148717        0.00012096        0.00000968
      12         -2.434978        2.000000        0.00639445        0.03450961        0.00009165        0.00000158
      13         -2.434513        2.000000        0.01474525        0.02937722        0.00015052        0.00000384
      14         -2.434503        2.000000        0.00655762        0.06761701        0.00010479        0.00000892
      15         -2.434499        2.000000        0.00852915        0.05604505        0.00016867        0.00000662
      16         -2.434492        2.000000        0.00642413        0.06758231        0.00012194        0.00000868
      17         -2.434414        2.000000        0.01732411        0.03483903        0.00018438        0.00000566
      18         -2.434367        2.000000        0.00932595        0.06203160        0.00017197        0.00000899
      19         -2.434367        2.000000        0.00938609        0.06186107        0.00017307        0.00000897
      20         -2.434341        2.000000        0.00251063        0.08731808        0.00006093        0.00001186
      21         -2.434334        2.000000        0.01383008        0.03797237        0.00021902        0.00000613
      22         -2.434310        2.000000        0.01158380        0.02864481        0.00017202        0.00000438
      23         -2.434301        2.000000        0.00208992        0.07064104        0.00006713        0.00000619
      24         -2.434301        2.000000        0.00214901        0.07050019        0.00006780        0.00000620
      25         -2.434283        2.000000        0.00493881        0.07258499        0.00012420        0.00000865
      26         -2.434257        2.000000        0.00530274        0.05662567        0.00007166        0.00000589
      27         -2.434249        2.000000        0.00593941        0.04369417        0.00007772        0.00000383
      28         -2.434244        2.000000        0.00374371        0.05154972        0.00006255        0.00000187
      29         -2.433873        2.000000        0.01262684        0.03709781        0.00015946        0.00000495
      30         -2.433848        2.000000        0.00442596        0.07289802        0.00009379        0.00000865
      31         -2.433848        2.000000        0.00444952        0.07281912        0.00009399        0.00000865
      32         -2.433803        2.000000        0.00616867        0.04199440        0.00009225        0.00000245
      33         -1.216139        2.000000        0.01679936        0.00099018        0.00025280        0.00000065
      34         -1.215812        2.000000        0.02470004        0.00036346        0.00012222        0.00000055
      35         -1.215785        2.000000        0.02383473        0.00253891        0.00007547        0.00000231
      36         -1.215785        2.000000        0.02383487        0.00253866        0.00007547        0.00000231
      37         -1.215668        2.000000        0.00629406        0.01430035        0.00017063        0.00000978
      38         -1.215634        2.000000        0.00131204        0.04053473        0.00004829        0.00001483
      39         -1.215634        2.000000        0.00131187        0.04053506        0.00004829        0.00001483
      40         -1.215496        2.000000        0.00585166        0.01893107        0.00023463        0.00000743
      41         -1.215355        2.000000        0.01239465        0.00142463        0.00037535        0.00000154
      42         -1.215269        2.000000        0.00148650        0.03328363        0.00008697        0.00001489
      43         -1.215222        2.000000        0.00350917        0.02070325        0.00018087        0.00001714
      44         -1.215222        2.000000        0.00350863        0.02070430        0.00018086        0.00001715
      45         -1.215204        2.000000        0.01197432        0.00629999        0.00035507        0.00000724
      46         -1.215204        2.000000        0.01197405        0.00630053        0.00035506        0.00000724
      47         -1.215165        2.000000        0.01069363        0.00279624        0.00048491        0.00000213
      48         -1.215077        2.000000        0.00721222        0.01687397        0.00028446        0.00001188
      49         -1.215077        2.000000        0.00721182        0.01687457        0.00028446        0.00001188
      50         -1.214994        2.000000        0.01356116        0.00259979        0.00049306        0.00000200
      51         -1.214994        2.000000        0.01356124        0.00259923        0.00049308        0.00000200
      52         -1.214882        2.000000        0.01194731        0.00891515        0.00034436        0.00000665
      53         -1.214822        2.000000        0.01548941        0.00495392        0.00033439        0.00000421
      54         -1.214780        2.000000        0.00000060        0.03297929        0.00000864        0.00002420
      55         -1.214779        2.000000        0.01354842        0.00462461        0.00037767        0.00000475
      56         -1.214717        2.000000        0.00295824        0.02640319        0.00016843        0.00001826
      57         -1.214717        2.000000        0.00296298        0.02636872        0.00016892        0.00001825
      58         -1.214712        2.000000        0.00345497        0.01737192        0.00028757        0.00001818
      59         -1.214712        2.000000        0.00344879        0.01740834        0.00028704        0.00001818
      60         -1.214666        2.000000        0.00157346        0.02869883        0.00003712        0.00002236
      61         -1.214618        2.000000        0.01032238        0.00234619        0.00065735        0.00000140
      62         -1.214584        2.000000        0.00261747        0.03031195        0.00011343        0.00001830
      63         -1.214584        2.000000        0.00261796        0.03031113        0.00011345        0.00001830
      64         -1.214563        2.000000        0.00018287        0.03097320        0.00014109        0.00002112
      65         -1.214563        2.000000        0.00018153        0.03098049        0.00014098        0.00002112
      66         -1.214540        2.000000        0.00122513        0.02307148        0.00019746        0.00002347
      67         -1.214390        2.000000        0.00368462        0.02743054        0.00015005        0.00001581
      68         -1.214276        2.000000        0.00527983        0.00473858        0.00098286        0.00000225
      69         -1.214230        2.000000        0.00807527        0.00327303        0.00076554        0.00000303
      70         -1.214229        2.000000        0.00285382        0.02036207        0.00018486        0.00002339
      71         -1.214229        2.000000        0.00292388        0.02013393        0.00019271        0.00002312
      72         -1.214192        2.000000        0.00192497        0.02055749        0.00016815        0.00003088
      73         -1.214192        2.000000        0.00187727        0.02067500        0.00016149        0.00003106
      74         -1.214190        2.000000        0.00485404        0.01343348        0.00056064        0.00002000
      75         -1.214100        2.000000        0.00528572        0.00877590        0.00061232        0.00001451
      76         -1.214100        2.000000        0.00528709        0.00877402        0.00061232        0.00001451
      77         -1.214037        2.000000        0.00435158        0.01007043        0.00065677        0.00001022
      78         -1.214013        2.000000        0.00000006        0.02680293        0.00007737        0.00002783
      79         -1.213964        2.000000        0.00209164        0.00252556        0.00130343        0.00000043
      80         -1.213950        2.000000        0.00710487        0.00353233        0.00093319        0.00000422
      81         -1.213939        2.000000        0.00184219        0.02018039        0.00032712        0.00002334
      82         -1.213939        2.000000        0.00193280        0.01996387        0.00033516        0.00002307
      83         -1.213937        2.000000        0.00029634        0.02544194        0.00002991        0.00003043
      84         -1.213929        2.000000        0.00169127        0.02054204        0.00032072        0.00002473
      85         -1.213929        2.000000        0.00170015        0.02050729        0.00032148        0.00002469
      86         -1.213894        2.000000        0.00006267        0.02476931        0.00001736        0.00003065
      87         -1.213858        2.000000        0.00682561        0.00251274        0.00101132        0.00000280
      88         -1.213824        2.000000        0.00702407        0.00075902        0.00116428        0.00000167
      89         -1.213816        2.000000        0.00002264        0.02471517        0.00001839        0.00003165
      90         -1.213805        2.000000        0.00007658        0.02476541        0.00001970        0.00003054
      91         -1.213804        2.000000        0.00203313        0.02061637        0.00027348        0.00002729
      92         -1.213803        2.000000        0.00205762        0.02058000        0.00027616        0.00002727
      93         -1.213783        2.000000        0.00000004        0.00181537        0.00158174        0.00000172
      94         -1.213776        2.000000        0.00079350        0.02354227        0.00014399        0.00003323
      95         -1.213660        2.000000        0.00103561        0.01549875        0.00032841        0.00003157
      96         -1.213585        2.000000        0.00041836        0.01410121        0.00041488        0.00003140
      97         -1.213585        2.000000        0.00041952        0.01410253        0.00041479        0.00003139
      98         -1.213511        2.000000        0.00054738        0.01729279        0.00026279        0.00003494
      99         -1.213511        2.000000        0.00054752        0.01729411        0.00026267        0.00003494
     100         -1.213467        2.000000        0.00292772        0.01439699        0.00036916        0.00002906
     101         -1.213451        2.000000        0.00012465        0.01128986        0.00072146        0.00002327
     102         -1.213451        2.000000        0.00012453        0.01129069        0.00072140        0.00002327
     103         -1.213399        2.000000        0.00241343        0.00165013        0.00143319        0.00000085
     104         -1.213331        2.000000        0.00092530        0.00984571        0.00087103        0.00001949
     105         -1.213294        2.000000        0.00035790        0.01656025        0.00017278        0.00003885
     106         -1.213294        2.000000        0.00035571        0.01657149        0.00017202        0.00003888
     107         -1.213287        2.000000        0.00000011        0.01662939        0.00014627        0.00004079
     108         -1.213277        2.000000        0.00292783        0.00103023        0.00133450        0.00000121
     109         -1.213248        2.000000        0.00008433        0.01230375        0.00050210        0.00003057
     110         -1.213239        2.000000        0.00010881        0.00875228        0.00092753        0.00001831
     111         -1.213239        2.000000        0.00010836        0.00887020        0.00091393        0.00001871
     112         -1.213205        2.000000        0.00013722        0.00836313        0.00098901        0.00001788
     113         -1.213205        2.000000        0.00013747        0.00835870        0.00098960        0.00001786
     114         -1.213183        2.000000        0.00055555        0.00228876        0.00153127        0.00000084
     115         -1.213140        2.000000        0.00040882        0.00576405        0.00110817        0.00001229
     116         -1.213124        2.000000        0.00055739        0.00384433        0.00137290        0.00000559
     117         -1.213124        2.000000        0.00055700        0.00384631        0.00137259        0.00000560
     118         -1.213098        2.000000        0.00014075        0.00416120        0.00134079        0.00000840
     119         -1.213098        2.000000        0.00014059        0.00416315        0.00134054        0.00000841
     120         -1.213032        2.000000        0.00007652        0.00549306        0.00101224        0.00001985
     121         -1.212844        2.000000        0.00095966        0.00948763        0.00089107        0.00001784
     122         -1.212820        2.000000        0.00000002        0.00297607        0.00144912        0.00000346
     123         -1.212789        2.000000        0.00037185        0.00714498        0.00110895        0.00001210
     124         -1.212789        2.000000        0.00037204        0.00714465        0.00110943        0.00001208
     125         -1.212783        2.000000        0.00037934        0.00128433        0.00158469        0.00000028
     126         -1.212772        2.000000        0.00016000        0.01077248        0.00013496        0.00004817
     127         -1.212772        2.000000        0.00016012        0.01076199        0.00013667        0.00004812
     128         -1.212754        2.000000        0.00058491        0.00905280        0.00037190        0.00003815
     129         -0.395659        2.000000        0.40116013        0.00057867        0.00002128        0.00000090
     130         -0.372217        2.000000        0.39511936        0.01734623        0.00009793        0.00000954
     131         -0.371275        2.000000        0.39603384        0.01745177        0.00009137        0.00000885
     132         -0.370425        2.000000        0.39643216        0.01658325        0.00010792        0.00000852
     133         -0.370296        2.000000        0.39681913        0.01649555        0.00010367        0.00000837
     134         -0.370295        2.000000        0.39681841        0.01649587        0.00010368        0.00000837
     135         -0.367080        2.000000        0.40017241        0.01509343        0.00032890        0.00000925
     136         -0.357101        2.000000        0.40632048        0.01145860        0.00066830        0.00001842
     137         -0.356771        2.000000        0.40768877        0.01059209        0.00077990        0.00001660
     138         -0.355397        2.000000        0.40991884        0.00928585        0.00097484        0.00001431
     139         -0.355397        2.000000        0.40991886        0.00928585        0.00097484        0.00001431
     140         -0.354827        2.000000        0.40852680        0.01144482        0.00069142        0.00001636
     141         -0.354537        2.000000        0.41090187        0.01063099        0.00071273        0.00001600
     142         -0.354381        2.000000        0.40935270        0.01090133        0.00069044        0.00001616
     143         -0.354380        2.000000        0.40935228        0.01090276        0.00069044        0.00001616
     144         -0.354251        2.000000        0.40951802        0.01069435        0.00070319        0.00001658
     145         -0.354251        2.000000        0.40951789        0.01069499        0.00070319        0.00001658
     146         -0.353936        2.000000        0.41025903        0.00996196        0.00068707        0.00001639
     147         -0.352324        2.000000        0.41921307        0.00346039        0.00161997        0.00000522
     148         -0.351340        2.000000        0.42337529        0.00093981        0.00188723        0.00000155
     149         -0.350819        2.000000        0.42415228        0.00233620        0.00159529        0.00000335
     150         -0.350819        2.000000        0.42415228        0.00233620        0.00159529        0.00000335
     151         -0.348566        2.000000        0.41886353        0.00319182        0.00024535        0.00000758
     152         -0.344728        2.000000        0.42329582        0.00013138        0.00004438        0.00000724
     153         -0.344253        2.000000        0.42452677        0.00018652        0.00004935        0.00000572
     154         -0.342874        2.000000        0.42395123        0.00048446        0.00010730        0.00001108
     155         -0.341934        2.000000        0.42436095        0.00018342        0.00009024        0.00001279
     156         -0.341851        2.000000        0.42273410        0.00003219        0.00008571        0.00001412
     157         -0.341629        2.000000        0.42157436        0.00013296        0.00012208        0.00001780
     158         -0.341627        2.000000        0.42148650        0.00011889        0.00012250        0.00001793
     159         -0.341613        2.000000        0.42199641        0.00020067        0.00012027        0.00001721
     160          0.067130        2.000000        0.00000338        0.46794436        0.00000400        0.00001314
     161          0.068259        2.000000        0.00068352        0.46902440        0.00001048        0.00001320
     162          0.068411        2.000000        0.00041236        0.46939052        0.00001433        0.00001303
     163          0.068411        2.000000        0.00041237        0.46939036        0.00001433        0.00001303
     164          0.087461        2.000000        0.00098369        0.62145751        0.00002360        0.00000298
     165          0.087541        2.000000        0.00130071        0.62082562        0.00001745        0.00000303
     166          0.087541        2.000000        0.00130042        0.62082583        0.00001746        0.00000303
     167          0.095655        2.000000        0.01860212        0.44045421        0.00041440        0.00002005
     168          0.104705        2.000000        0.03389477        0.47564345        0.00024207        0.00002861
     169          0.105228        2.000000        0.03410977        0.47536200        0.00023675        0.00002871
     170          0.105228        2.000000        0.03410978        0.47536199        0.00023675        0.00002871
     171          0.105687        2.000000        0.03395169        0.47602012        0.00021084        0.00002957
     172          0.105807        2.000000        0.03412044        0.47610742        0.00021335        0.00002965
     173          0.106118        2.000000        0.03388656        0.47685149        0.00023951        0.00002928
     174          0.106256        2.000000        0.03393779        0.47673824        0.00023228        0.00002937
     175          0.106257        2.000000        0.03393774        0.47673907        0.00023230        0.00002937
     176          0.110404        2.000000        0.02892761        0.49116395        0.00040653        0.00002367
     177          0.110404        2.000000        0.02892762        0.49116391        0.00040653        0.00002367
     178          0.111529        2.000000        0.03004907        0.48932921        0.00037308        0.00002414
     179          0.125177        2.000000        0.00031647        0.56597146        0.00134232        0.00000424
     180          0.125372        2.000000        0.00007348        0.56759467        0.00133863        0.00000412
     181          0.125372        2.000000        0.00007349        0.56759465        0.00133863        0.00000412
     182          0.126067        2.000000        0.00000002        0.56731134        0.00138299        0.00000403
     183          0.126324        2.000000        0.00031280        0.56640334        0.00137049        0.00000418
     184          0.126324        2.000000        0.00031272        0.56640352        0.00137049        0.00000418
     185          0.126931        2.000000        0.00004719        0.56727048        0.00119747        0.00000417
     186          0.126931        2.000000        0.00004308        0.56727635        0.00119753        0.00000417
     187          0.127375        2.000000        0.00020604        0.56757606        0.00116112        0.00000449
     188          0.127923        2.000000        0.07663702        0.46084790        0.00012318        0.00001935
     189          0.130988        2.000000        0.03603641        0.52968839        0.00081209        0.00001035
     190          0.130988        2.000000        0.03603636        0.52968851        0.00081209        0.00001035
     191          0.131267        2.000000        0.03340773        0.53223193        0.00086685        0.00000969
     192          0.136132        2.000000        0.08609610        0.48646626        0.00010036        0.00001668
     193          0.136206        2.000000        0.08619943        0.48636615        0.00010502        0.00001645
     194          0.141938        2.000000        0.04690535        0.52185021        0.00079573        0.00001459
     195          0.142425        2.000000        0.04490231        0.52334275        0.00081635        0.00001489
     196          0.142425        2.000000        0.04490221        0.52334287        0.00081636        0.00001489
     197          0.159539        2.000000        0.00000000        0.57646720        0.00229284        0.00000815
     198          0.159985        2.000000        0.00002848        0.57640131        0.00231976        0.00000849
     199          0.159985        2.000000        0.00002848        0.57640131        0.00231976        0.00000849
     200          0.160296        2.000000        0.00000483        0.57701075        0.00224695        0.00000848
     201          0.160316        2.000000        0.00000000        0.57638178        0.00231409        0.00000829
     202          0.160752        2.000000        0.00003855        0.57864866        0.00194550        0.00000866
     203          0.160752        2.000000        0.00003855        0.57864867        0.00194550        0.00000866
     204          0.160786        2.000000        0.00001087        0.57865715        0.00210301        0.00000841
     205          0.161456        2.000000        0.00000956        0.57891631        0.00216445        0.00000845
     206          0.162905        2.000000        0.00178329        0.56784319        0.00175183        0.00002907
     207          0.163324        2.000000        0.00182122        0.56804189        0.00176237        0.00002889
     208          0.163324        2.000000        0.00182121        0.56804191        0.00176237        0.00002889
     209          0.167019        2.000000        0.00002821        0.56370232        0.00151942        0.00005213
     210          0.168114        2.000000        0.00003489        0.56542759        0.00137362        0.00005160
     211          0.168417        2.000000        0.00007037        0.56555060        0.00138248        0.00005136
     212          0.173729        2.000000        0.00184743        0.58420180        0.00104153        0.00007252
     213          0.173729        2.000000        0.00184745        0.58420180        0.00104153        0.00007252
     214          0.175907        2.000000        0.00161354        0.58441714        0.00107910        0.00007158
     215          0.182461        2.000000        0.00001287        0.60726659        0.00000459        0.00013169
     216          0.182541        2.000000        0.00001090        0.60727801        0.00000531        0.00013018
     217          0.182541        2.000000        0.00001090        0.60727800        0.00000531        0.00013018
     218          0.187593        2.000000        0.00115516        0.62009736        0.00042914        0.00009332
     219          0.188083        2.000000        0.00088921        0.62224932        0.00043688        0.00008905
     220          0.188083        2.000000        0.00088919        0.62224927        0.00043688        0.00008905
     221          0.202726        2.000000        0.00002685        0.64415197        0.00073532        0.00007275
     222          0.203170        2.000000        0.00001831        0.64810833        0.00066082        0.00007414
     223          0.203170        2.000000        0.00001831        0.64810530        0.00066084        0.00007414
     224          0.203542        2.000000        0.00006710        0.65765517        0.00060002        0.00006764
     225          0.203542        2.000000        0.00006722        0.65768036        0.00059979        0.00006759
     226          0.203554        2.000000        0.00000013        0.64156012        0.00074081        0.00009017
     227          0.204019        2.000000        0.00001744        0.63889103        0.00074506        0.00009349
     228          0.204019        2.000000        0.00001744        0.63889066        0.00074507        0.00009349
     229          0.204428        2.000000        0.00001126        0.64060780        0.00065443        0.00009427
     230          0.204428        2.000000        0.00001126        0.64060697        0.00065444        0.00009427
     231          0.204775        2.000000        0.00003592        0.63896604        0.00066015        0.00009709
     232          0.205169        2.000000        0.00006183        0.66911993        0.00051176        0.00005793
     233          0.206749        2.000000        0.00003440        0.70690137        0.00046266        0.00001502
     234          0.206749        2.000000        0.00003440        0.70690141        0.00046266        0.00001503
     235          0.206921        2.000000        0.00000782        0.70413454        0.00041412        0.00002186
     236          0.207005        2.000000        0.00001472        0.71277939        0.00031186        0.00001549
     237          0.207829        2.000000        0.00002457        0.70544519        0.00060054        0.00000893
     238          0.208418        2.000000        0.00002134        0.70604992        0.00048559        0.00000970
     239          0.208458        2.000000        0.00003094        0.71653886        0.00022183        0.00001870
     240          0.208458        2.000000        0.00003095        0.71654214        0.00022173        0.00001871
     241          0.208470        2.000000        0.00000000        0.72234904        0.00005012        0.00002007
     242          0.208533        2.000000        0.00000551        0.72399826        0.00000430        0.00002034
     243          0.208583        2.000000        0.00004342        0.70586510        0.00050700        0.00000963
     244          0.208703        2.000000        0.00000290        0.70214911        0.00061652        0.00001445
     245          0.208703        2.000000        0.00000291        0.70214599        0.00061667        0.00001444
     246          0.208836        2.000000        0.00000000        0.70247633        0.00058370        0.00001684
     247          0.209097        2.000000        0.00000684        0.71596499        0.00025500        0.00001594
     248          0.209097        2.000000        0.00000585        0.71596720        0.00025652        0.00001573
     249          0.209101        2.000000        0.00002170        0.71581455        0.00023494        0.00001905
     250          0.227763        2.000000        0.00018945        0.67496705        0.00005719        0.00005241
     251          0.227863        2.000000        0.00006602        0.67461917        0.00005868        0.00005408
     252          0.227863        2.000000        0.00006601        0.67461920        0.00005868        0.00005408
     253          0.314053        2.000000        0.13994953        0.16817527        0.00355778        0.00005623
     254          0.413415        0.000000        0.57238370        0.06331371        0.00243738        0.00001765
     255          0.469646        0.000000        0.19908268        0.25939739        0.00563444        0.00006466
     256          0.469646        0.000000        0.19908272        0.25939741        0.00563444        0.00006466
     257          0.471193        0.000000        0.20611267        0.26267399        0.00544234        0.00006196
     258          0.510001        0.000000        0.32645789        0.00010739        0.02607772        0.00000043
     259          0.510001        0.000000        0.32645784        0.00010478        0.02607785        0.00000043