&FCI NORB=   5,NELEC=   2,MS2= 1,
  ORBSYM=1,1,1,1,1,
  ISYM=0,
 /
 7.9461823824699462E-02   1   1   1   1
-5.0410073980243237E-05   1   1   1   2
 2.2261112174501462E-04   1   1   1   3
 7.2875494007901016E-04   1   1   1   4
-4.6847599030322071E-04   1   1   1   5
 7.5822078670682413E-02   1   1   2   2
-2.3441971148802348E-05   1   1   2   3
-8.0657534720572632E-04   1   1   2   4
 8.9302709434582468E-04   1   1   2   5
 7.4728623517897663E-02   1   1   3   3
 8.8477903514575483E-04   1   1   3   4
 5.6444024093048936E-04   1   1   3   5
 6.9976667042533872E-02   1   1   4   4
 5.6970471208621647E-04   1   1   4   5
 7.0668563397298031E-02   1   1   5   5
 1.5518274521059570E-03   1   2   1   2
 4.6283359559548521E-05   1   2   1   3
-5.3967114716542384E-05   1   2   1   4
 1.0490819423180656E-04   1   2   1   5
-2.6262971058720264E-05   1   2   2   2
-1.4371935932429720E-04   1   2   2   3
-1.4951709712753291E-05   1   2   2   4
-2.2969068386855397E-04   1   2   2   5
 4.6869967975973202E-05   1   2   3   3
-1.1835844775214587E-04   1   2   3   4
-1.5754005695027381E-05   1   2   3   5
 1.3417146587688540E-04   1   2   4   4
 2.0988325171229705E-05   1   2   4   5
 1.1381816961958737E-05   1   2   5   5
 1.5284888586458516E-03   1   3   1   3
 3.3285514952850027E-04   1   3   1   4
-3.2425582444022650E-04   1   3   1   5
 4.6286431258058127E-04   1   3   2   2
-1.1199513029854703E-04   1   3   2   3
-2.5300872207876889E-04   1   3   2   4
 1.6039231469200399E-04   1   3   2   5
-1.1435445601567726E-04   1   3   3   3
 3.9733588909189881E-04   1   3   3   4
 3.4156115689055479E-05   1   3   3   5
-9.0354173030169060E-05   1   3   4   4
-7.6880993373518313E-05   1   3   4   5
 3.4572651255354868E-05   1   3   5   5
 1.4750600099260052E-03   1   4   1   4
-1.3229357901621802E-04   1   4   1   5
 9.7405560860938743E-04   1   4   2   2
-9.5205792686129742E-05   1   4   2   3
-8.6920710279268142E-05   1   4   2   4
 3.7094024729364010E-04   1   4   2   5
 1.6571201719865294E-04   1   4   3   3
 6.5479079106357764E-04   1   4   3   4
 7.6129772055428041E-05   1   4   3   5
-1.4458550552274956E-04   1   4   4   4
 1.3449812358067533E-04   1   4   4   5
 2.8659033560563397E-04   1   4   5   5
 1.5070118365815310E-03   1   5   1   5
-6.9578817159518351E-04   1   5   2   2
 1.7978878454707431E-04   1   5   2   3
 4.2261805303859179E-04   1   5   2   4
-2.6309389923406161E-04   1   5   2   5
 3.3472893319760620E-07   1   5   3   3
-3.6237399478195238E-04   1   5   3   4
-4.0055796000998956E-05   1   5   3   5
 1.4463188392218018E-04   1   5   4   4
-3.0978994060541408E-06   1   5   4   5
-1.3870942721948092E-04   1   5   5   5
 7.8804656668716763E-02   2   2   2   2
-1.5438281878156837E-04   2   2   2   3
-8.0385276857002346E-04   2   2   2   4
 9.7502249003609219E-04   2   2   2   5
 7.4856951744089822E-02   2   2   3   3
 1.0443935843451302E-03   2   2   3   4
 4.4438106164479364E-04   2   2   3   5
 7.0073354484430014E-02   2   2   4   4
 3.8020721091374006E-04   2   2   4   5
 7.0882878589019552E-02   2   2   5   5
 1.4545495739858112E-03   2   3   2   3
 5.4699048747486963E-05   2   3   2   4
 1.0512006459220959E-04   2   3   2   5
 5.7227909976434617E-05   2   3   3   3
-3.2507769961094454E-05   2   3   3   4
 7.0013809692361019E-05   2   3   3   5
 1.1685303242465618E-04   2   3   4   4
 5.8928194687625425E-05   2   3   4   5
 1.1121819332788528E-04   2   3   5   5
 1.3954477076070441E-03   2   4   2   4
-5.1235740626464786E-04   2   4   2   5
-3.6318335998759734E-04   2   4   3   3
-2.6787150369722080E-04   2   4   3   4
-5.2919418863619692E-05   2   4   3   5
-1.1829383493857416E-04   2   4   4   4
-4.9663792827989243E-05   2   4   4   5
-2.1421739968247917E-04   2   4   5   5
 1.8609461109696441E-03   2   5   2   5
 1.8301963387883587E-04   2   5   3   3
 3.4143092897609211E-04   2   5   3   4
 3.1323769906343714E-04   2   5   3   5
-1.0249119454522711E-04   2   5   4   4
 2.1016252373327193E-04   2   5   4   5
 3.8940070483598486E-04   2   5   5   5
 7.7473319885151812E-02   3   3   3   3
 1.2987526461922800E-04   3   3   3   4
 2.5694942979322897E-04   3   3   3   5
 7.0229312236325336E-02   3   3   4   4
 4.3006855651230643E-04   3   3   4   5
 7.0101034566754789E-02   3   3   5   5
 1.7540352386964668E-03   3   4   3   4
 3.1299265746493547E-04   3   4   3   5
 2.8395084356161232E-05   3   4   4   4
 1.3419899692999806E-04   3   4   4   5
 5.9168902408139514E-04   3   4   5   5
 1.2794072790625645E-03   3   5   3   5
-5.2302853322183030E-05   3   5   4   4
 1.5235435174476672E-04   3   5   4   5
 1.6981134149225328E-04   3   5   5   5
 6.9913798528552659E-02   4   4   4   4
 5.9201055389850217E-04   4   4   4   5
 6.7227341342478319E-02   4   4   5   5
 1.2623692506523270E-03   4   5   4   5
 5.7603955432207130E-04   4   5   5   5
 7.0351725318377356E-02   5   5   5   5
-1.3630859410737894E-01   1   1   0   0
 1.8563492722641574E-03   1   2   0   0
-1.5622138606175935E-03   1   3   0   0
 4.2575680865508496E-04   1   4   0   0
 2.2129893468401523E-04   1   5   0   0
-1.3076662496182778E-01   2   2   0   0
 1.3419380913610899E-03   2   3   0   0
 3.8424755560486994E-03   2   4   0   0
-8.0974246101158092E-04   2   5   0   0
-1.3637246675400524E-01   3   3   0   0
-2.1505074670372937E-03   3   4   0   0
 5.1260087300449779E-04   3   5   0   0
-1.2354830008524448E-01   4   4   0   0
 9.9238405172199433E-04   4   5   0   0
-1.2634382633445176E-01   5   5   0   0
-2.4127317037903029E+02   0   0   0   0
