104
Lattice="11.45512985522207 0.0 0.0 5.727564927611035 9.92043345827187 0.0 0.0 0.0 31.691342951089922" Properties=species:S:1:pos:R:3:tags:I:1:forces:R:3 energy=-420.0530090332031 free_energy=-420.0530090332031 stress="0.009674295783042908 1.7369166016578674e-07 1.7695128917694092e-08 1.7369166016578674e-07 0.0097132483497262 2.612825483083725e-06 1.7695128917694092e-08 2.612825483083725e-06 0.00998868327587843" pbc="T T F"
Al       1.45746375       0.84713885       9.85500609        6       0.00130707      -0.00001502       0.00205661
Al       4.32206191       0.84555745       9.87553791        6       0.00130089      -0.00004028       0.00188479
Al       7.18346825       0.84678808       9.89470108        6       0.00131628      -0.00009119       0.00176694
Al      10.04599049       0.84813586       9.86859286        6       0.00131456      -0.00003507       0.00199935
Al       2.88754507       3.33080271       9.87401591        6       0.00123426      -0.00000969       0.00178278
Al       5.74975231       3.32928864       9.88222894        6       0.00131453      -0.00006070       0.00167887
Al       8.61194616       3.33099412       9.87236643        6       0.00139763      -0.00014123       0.00180617
Al      11.47780220       3.33111153       9.86529211        6       0.00131501      -0.00004405       0.00186819
Al       4.31531509       5.80960057       9.91387108        6       0.00124685       0.00008366       0.00156404
Al       7.17787948       5.80824157       9.89699872        6       0.00137639       0.00007960       0.00168444
Al      10.04303752       5.80853776       9.90048477        6       0.00138984       0.00006764       0.00173046
Al      12.90744115       5.81050364       9.90921048        6       0.00130100       0.00005612       0.00176122
Al       5.74848510       8.28815271       9.89294739        6       0.00133603       0.00002627       0.00188975
Al       8.61517396       8.28486261       9.88691024        6       0.00133692       0.00008359       0.00196262
Al      11.47866146       8.28531074       9.91985029        6       0.00130607       0.00007386       0.00179467
Al      14.34087272       8.28756728       9.92409386        6       0.00122878       0.00005269       0.00171159
Al       0.07621927       1.66047690      12.30402106        5       0.00072905       0.00046820       0.00020636
Al       2.93540033       1.65791109      12.30586028        5       0.00109653       0.00109720       0.00197160
Al       5.80100259       1.65742318      12.32545615        5       0.00017470       0.00094523      -0.00429013
Al       8.67138760       1.66036327      12.32321517        5       0.00032454      -0.00040876      -0.00365157
Al       1.50600097       4.14209862      12.32310756        5       0.00054180       0.00054675      -0.00514376
Al       4.36551220       4.13948409      12.32200081        5       0.00042132       0.00095622      -0.00495531
Al       7.23694329       4.13849959      12.31937249        5       0.00158213       0.00156517      -0.00880964
Al      10.10573190       4.14352458      12.31770416        5       0.00032909      -0.00058745      -0.00615076
Al       2.93525170       6.63328896      12.35645265        5       0.00057817      -0.00287489      -0.00436192
Al       5.80270497       6.63129774      12.33685195        5       0.00022314      -0.00012819      -0.00818634
Al       8.67264969       6.63278124      12.33657446        5      -0.00020660      -0.00101879      -0.00647826
Al      11.53228323       6.63477108      12.35898903        5       0.00094665      -0.00421908      -0.00672676
Al       4.37123874       9.10743933      12.34534749        5       0.00015677       0.00080105      -0.00657116
Al       7.23607559       9.11030952      12.32798083        5       0.00019326      -0.00034057      -0.00371097
Al      10.09950894       9.10803087      12.34884118        5      -0.00082378       0.00043265      -0.00420703
Al      12.95856434       9.10791337      12.36307771        5       0.00233011       0.00013844      -0.00315445
Al       0.08313557       0.00203875      14.65733827        4      -0.00061305       0.00014112      -0.00060125
Al       2.94420138       0.00063433      14.66445059        4       0.00124182      -0.00041774      -0.00007032
Al       5.80701569      -0.00496688      14.69053029        4       0.00050703       0.00032387      -0.00151041
Al       8.67247877      -0.00520054      14.67914546        4       0.00128367       0.00049689       0.00152696
Al       1.50945529       2.47061263      14.63774208        4       0.00186680      -0.00221970      -0.01454427
Al       4.36738692       2.46579662      14.63072188        4       0.00189366       0.00040187       0.00105457
Al       7.24098564       2.46052653      14.62934852        4       0.00065050       0.00059091       0.00124628
Al      10.11640871       2.47561342      14.63606957        4      -0.00503232      -0.00907249      -0.00591636
Al       2.92891151       4.95799110      14.64495304        4       0.00621601       0.00086388       0.00045389
Al       5.80558868       4.95671868      14.60940409        4       0.00103679      -0.00121991       0.00656226
Al       8.68646178       4.95706574      14.61841762        4      -0.00094683       0.00094311       0.00387391
Al      11.54089016       4.95941798      14.65456269        4       0.00123042       0.00037705       0.00087135
Al       4.36968663       7.44789729      14.67554269        4       0.00182264      -0.00086962      -0.00507584
Al       7.24377059       7.44597057      14.64567741        4       0.00127368       0.00016829       0.00123059
Al      10.11706183       7.45047871      14.68399083        4      -0.00298214      -0.00118734      -0.00910016
Al      12.96804710       7.45059923      14.70695120        4       0.00171300      -0.00277811      -0.01086738
Al       1.49226085       0.79405025      16.98519525        3       0.00665305      -0.00548147       0.00521391
Al       4.35839930       0.78504064      17.01853614        3      -0.00494776      -0.00374440      -0.00048599
Al       7.21198039       0.76857644      17.02897475        3       0.00686282       0.00074269      -0.00308440
Al      10.07518545       0.77753667      17.02537576        3       0.01376767       0.00036706      -0.01730174
Al       2.93154184       3.25374846      16.94110436        3      -0.01285400       0.00775912       0.01937655
Al       5.78728432       3.26295132      16.94627576        3       0.00412111      -0.00438163      -0.00647545
Al       8.65848344       3.25226850      16.91719505        3       0.00610697       0.00234662       0.01590807
Al      11.53596227       3.25301853      16.96393271        3       0.00098853       0.00068907       0.00011953
Al       4.37204207       5.75980320      16.95343524        3      -0.02841011      -0.00151349      -0.00070127
Al       7.22956206       5.75736869      16.93414676        3       0.00416348      -0.00229009      -0.00575848
Al      10.11308714       5.77896791      16.96956807        3      -0.00019233      -0.00748131      -0.00422584
Al      12.95984420       5.77268308      17.00510554        3       0.00263293      -0.02407225       0.00330258
Al       5.80802083       8.25622385      16.97558975        3      -0.00914072       0.00337588       0.01636810
Al       8.67124227       8.23645881      16.99440408        3      -0.00155396       0.02692460       0.00908318
Al      11.54496520       8.24789097      17.07132711        3       0.00013810      -0.00002780       0.00264252
Al      14.38338758       8.24279279      17.05905349        3       0.00162103       0.00060228       0.00181433
Al       0.05442240       1.56280402      19.33236854        2       0.00139275       0.00787311       0.01891754
Al       2.85396663       1.57427895      19.34769361        2       0.00907171      -0.00176793       0.01539040
Al       5.75788350       1.58601025      19.30168962        2      -0.00720424      -0.00342459       0.01112216
Al       8.61590387       1.58180493      19.31222652        2       0.00462195      -0.00166310      -0.00340599
Al       1.47411491       4.05926286      19.27948038        2       0.00272877       0.00014466       0.02071223
Al       4.31205314       4.05100330      19.22293072        2      -0.00334447       0.00245681      -0.00290878
Al       7.22273911       4.06603699      19.21190578        2       0.00133525       0.00199931      -0.00371617
Al      10.09956943       4.07811964      19.17909098        2      -0.00950722      -0.00627120       0.03820512
Al       2.89093566       6.56028595      19.34373169        2       0.00723152      -0.00328775      -0.00428092
Al       5.76201727       6.57998136      19.22344105        2       0.00161350      -0.00014284      -0.00076951
Al       8.63731093       6.56095742      19.23593056        2       0.00163135       0.00104857       0.00870062
Al      11.52185892       6.55558893      19.38779473        2      -0.00271365       0.00494940      -0.00522966
Al       4.34230613       9.03695082      19.41340327        2       0.00347523       0.00193734       0.00495156
Al       7.21125233       9.06291446      19.35196419        2       0.00197233      -0.00005698      -0.00135181
Al      10.08006789       9.03098658      19.39938363        2      -0.00591058       0.00156122       0.00504590
Al      12.94555154       9.03484878      19.55872257        2      -0.01079168      -0.00543128      -0.01212085
Al      -0.15810277      -0.23412270      22.04686788        1       0.00009588       0.00385921      -0.00755541
Al       2.74429025      -0.10616284      22.08808736        1       0.00091415      -0.00063280      -0.00287806
Al       5.52535392      -0.04326834      21.91952088        1       0.00742254       0.00079576      -0.00423464
Al       8.44994538      -0.03124210      22.00603532        1       0.00572709      -0.00102941      -0.00146785
Al       1.43219411       2.51466825      22.09533206        1      -0.00455026      -0.00372394      -0.01140853
Al       4.25676374       2.45003180      21.58878100        1       0.00489518      -0.00001807       0.00157620
Al       7.12000786       2.45734088      21.64655262        1      -0.00386819      -0.00357033      -0.00642892
Al      10.00325255       2.40008118      21.56752636        1       0.01023069       0.00022098       0.01361540
Al       2.86421067       4.89753327      21.66271109        1      -0.00742433      -0.00288294      -0.01816581
Al       5.72079561       4.89146447      21.42673860        1      -0.00312263      -0.00055055       0.00920778
Al       8.50050782       4.84176927      21.61179497        1       0.00452991       0.00091978      -0.00942133
Al      11.34432226       4.89561906      21.67366767        1      -0.00170801       0.00315520       0.00222245
Al       4.20564619       7.31552396      21.71419390        1       0.00436218       0.00352774      -0.00790527
Al       7.05277633       7.38001779      21.57206632        1       0.00478708      -0.00870293      -0.00277442
Al       9.78470394       7.25602634      21.77543696        1       0.00086190      -0.00012424       0.00089693
Al      12.82212202       7.32585531      22.07981925        1      -0.00439166      -0.00392450      -0.01068761
C        5.52916097       4.62833808      24.79050688        0      -0.04254137      -0.05495955       0.00481452
N        6.34484592       3.61841543      25.11088091        0       0.03012165       0.04002023       0.00361144
C        7.55836268       4.23205829      25.27819069        0      -0.08767821       0.03708642      -0.03627617
N        7.55123252       5.55321386      25.04055286        0      -0.03819289      -0.01739017      -0.01578422
N        6.23423678       5.79373727      24.76978791        0       0.02364277      -0.00563042       0.04129352
H        4.47505329       4.55220041      24.52437601        0       0.06715579       0.01729593       0.00648323
H        8.47910279       3.71028278      25.53172214        0      -0.00252635      -0.01812981       0.00271454
H        5.93714855       6.64400418      24.29123508        0       0.00491654       0.03664517      -0.00035284
