104
Lattice="11.45512985522207 0.0 0.0 5.727564927611035 9.92043345827187 0.0 0.0 0.0 31.691342951089922" Properties=species:S:1:pos:R:3:tags:I:1:forces:R:3 energy=-420.114990234375 free_energy=-420.114990234375 stress="0.009421885013580322 -1.2665987014770508e-07 3.306195139884949e-08 -1.2665987014770508e-07 0.009465120732784271 2.535991370677948e-06 3.306195139884949e-08 2.535991370677948e-06 0.009728185832500458" pbc="T T F"
Al       1.46592549       0.84725777       9.85996694        6       0.00100711       0.00010203       0.00199605
Al       4.33045347       0.84663073       9.87984312        6       0.00098266       0.00007106       0.00175761
Al       7.19162497       0.84747489       9.89768240        6       0.00105000       0.00005471       0.00160935
Al      10.05443165       0.84768364       9.87260601        6       0.00104780       0.00014880       0.00189035
Al       2.89637635       3.33133610       9.87625340        6       0.00091249       0.00005180       0.00168358
Al       5.75769672       3.33067607       9.88509445        6       0.00105298       0.00003123       0.00147857
Al       8.61980290       3.33222645       9.87459610        6       0.00117361      -0.00008049       0.00163014
Al      11.48589033       3.33186696       9.86728575        6       0.00106200       0.00000421       0.00179800
Al       4.32373920       5.80909340       9.91397984        6       0.00094681       0.00025344       0.00138965
Al       7.18625728       5.80801518       9.89851849        6       0.00109561       0.00031541       0.00146426
Al      10.05107467       5.80886008       9.90077056        6       0.00112624       0.00022001       0.00156338
Al      12.91599178       5.80997119       9.90801283        6       0.00100987       0.00019892       0.00161632
Al       5.75675355       8.28744323       9.89612159        6       0.00104471       0.00020686       0.00174554
Al       8.62332322       8.28458073       9.89092323        6       0.00103409       0.00029238       0.00182249
Al      11.48635345       8.28425395       9.92045479        6       0.00104944       0.00033725       0.00165792
Al      14.34976629       8.28640781       9.92509403        6       0.00090385       0.00025303       0.00155722
Al       0.08515498       1.66081898      12.31478443        5      -0.00013738       0.00207731      -0.00629939
Al       2.94512436       1.65944566      12.31259109        5      -0.00011990       0.00154158       0.00046045
Al       5.80811496       1.65758303      12.32304917        5       0.00096947       0.00258758       0.00467973
Al       8.67944132       1.66072660      12.32705269        5       0.00012117       0.00154721      -0.00134607
Al       1.51543711       4.14730864      12.32463648        5      -0.00103379      -0.00142472      -0.00227677
Al       4.37183055       4.14294351      12.31839847        5       0.00151552       0.00064141       0.00352379
Al       7.24664107       4.14212225      12.31079267        5       0.00072333       0.00087659       0.00533275
Al      10.11506304       4.14679775      12.31732809        5      -0.00001530      -0.00099710       0.00180251
Al       2.94125941       6.63644624      12.35221326        5       0.00147836      -0.00277659       0.00193253
Al       5.80919397       6.63502393      12.32632359        5       0.00102201      -0.00053066       0.00554697
Al       8.68242175       6.63727253      12.32779909        5      -0.00080465      -0.00174207       0.00488575
Al      11.54237937       6.63665486      12.35075688        5      -0.00069185      -0.00312997       0.00456716
Al       4.37849225       9.10898433      12.34619991        5       0.00073179       0.00125077      -0.00146836
Al       7.24419374       9.11170319      12.33267155        5       0.00016864       0.00023145      -0.00161112
Al      10.10819164       9.11017757      12.34680467        5      -0.00095736       0.00068344       0.00371964
Al      12.96729886       9.10848438      12.35973617        5       0.00111257       0.00118089       0.00429687
Al       0.08974799       0.00434490      14.66406532        4      -0.00555196      -0.00836203      -0.01775371
Al       2.95121461       0.00308378      14.67190329        4       0.00200265      -0.00334931      -0.00793685
Al       5.81414649      -0.00376033      14.69130713        4       0.00062615       0.00043071       0.00090638
Al       8.67842542      -0.00407447      14.68098626        4       0.00083014       0.00043179       0.00146646
Al       1.51623704       2.47135679      14.63247350        4       0.00131827       0.00085341       0.00087515
Al       4.37463576       2.47100555      14.63227331        4       0.00152509       0.00036576       0.00126957
Al       7.24931377       2.46241433      14.63222756        4       0.00066975       0.00089425       0.00167441
Al      10.12183269       2.47394661      14.63993187        4      -0.00074711      -0.00008087       0.00082453
Al       2.93776438       4.96298846      14.64598160        4       0.00291620      -0.00063835      -0.00044534
Al       5.81499629       4.95885559      14.61291545        4       0.00017628      -0.00021282       0.00196074
Al       8.69368897       4.96000893      14.62407348        4       0.00047474       0.00021882       0.00154551
Al      11.54972733       4.96251336      14.66470112        4       0.00071950      -0.00157277      -0.00756057
Al       4.37327925       7.44882474      14.67210798        4       0.00267662       0.00017060      -0.00018443
Al       7.25088180       7.44331081      14.64755148        4       0.00076082       0.00069294       0.00096712
Al      10.12230978       7.44998307      14.68039359        4       0.00020222       0.00044036      -0.00057714
Al      12.97582679       7.44957808      14.70441427        4       0.00061474       0.00009477       0.00045624
Al       1.49247284       0.78528413      16.98595258        3       0.02250904       0.00425392       0.00716092
Al       4.35575958       0.77950160      17.02691189        3       0.00045734      -0.00006503      -0.00450994
Al       7.21842490       0.77233857      17.03256187        3       0.00686436      -0.00356836      -0.00710839
Al      10.09502864       0.76617829      17.01014002        3      -0.01411816       0.01105596       0.00342720
Al       2.94079899       3.25717723      16.95160467        3      -0.01803334      -0.00590753       0.00677854
Al       5.79249373       3.25995018      16.94874892        3       0.00318238      -0.00124585      -0.00160119
Al       8.66921018       3.25853296      16.94760746        3       0.00033220      -0.00539718      -0.00648625
Al      11.54204357       3.24944626      16.97383986        3       0.00141710       0.00122543      -0.00467144
Al       4.35566953       5.75571426      16.95315755        3       0.00223086       0.00104551       0.00138967
Al       7.23623968       5.75291373      16.91649384        3       0.00045950       0.00029529       0.00974214
Al      10.12687444       5.77561201      16.97067020        3      -0.01022549      -0.00762944      -0.00239814
Al      12.96903912       5.75575121      17.02045613        3      -0.00330148      -0.00317719      -0.00410054
Al       5.81148827       8.26085603      16.99078819        3      -0.01420933      -0.02565539       0.00479682
Al       8.67407608       8.24195805      17.00269081        3       0.00073615       0.00059807       0.00130076
Al      11.55076435       8.24192338      17.07712767        3       0.00067489       0.00040332       0.00106494
Al      14.38937657       8.23344967      17.07014680        3       0.00149763       0.00593760      -0.00210388
Al       0.06195011       1.55793825      19.31146974        2      -0.00856429       0.00655806       0.02452104
Al       2.85501968       1.56453919      19.34835887        2       0.00553489       0.00008101       0.00456123
Al       5.74730075       1.57617424      19.31064766        2       0.00141669       0.00106120       0.00098961
Al       8.61291908       1.57372239      19.31118514        2       0.00690685       0.00046786      -0.00403769
Al       1.47578887       4.05322906      19.30074552        2       0.00027962      -0.00005500      -0.00412547
Al       4.31582843       4.04598883      19.23353666        2      -0.00164975       0.00297826      -0.00835784
Al       7.22065618       4.07369888      19.22518178        2      -0.00096843      -0.00579007      -0.00926398
Al      10.10068765       4.07408410      19.19369968        2      -0.00353450      -0.00365388       0.01567607
Al       2.90119046       6.54904345      19.33842086        2       0.00314091       0.00107752      -0.00429665
Al       5.76227903       6.56450759      19.23053709        2       0.00186264       0.00136193      -0.00567005
Al       8.63982627       6.55275454      19.23717548        2       0.00053768       0.00202137       0.00087376
Al      11.52236937       6.54947469      19.38022310        2      -0.00243526       0.00127227      -0.00353365
Al       4.34141841       9.02915842      19.42531621        2       0.00485033       0.00568427       0.00159728
Al       7.20906607       9.05880362      19.35045609        2       0.00176948      -0.00396668      -0.00154255
Al      10.07642632       9.02470571      19.37939004        2      -0.00405390       0.00009954       0.00532349
Al      12.94207188       9.02699446      19.54724216        2      -0.00602534      -0.00145967      -0.01200468
Al      -0.14813943      -0.24135522      22.02152706        1      -0.00120271       0.00100195      -0.00532222
Al       2.75111436      -0.12713548      22.07579265        1      -0.00117562       0.00055674      -0.00155151
Al       5.51925976      -0.05299867      21.89262527        1       0.01074843       0.00303554      -0.00215627
Al       8.46861306      -0.04321091      21.99496660        1       0.00426922       0.00171908      -0.00000628
Al       1.43352611       2.48705698      22.03127499        1      -0.00343560       0.00252598       0.00345015
Al       4.25711487       2.45163747      21.58581709        1       0.00474331      -0.00096848       0.00344682
Al       7.11532435       2.45098361      21.66707691        1      -0.00055382      -0.00329822      -0.00720489
Al      10.01261742       2.40522602      21.57825924        1       0.00343307      -0.00197669       0.00172066
Al       2.84112758       4.88688819      21.64997594        1      -0.00146066       0.00145349      -0.00496101
Al       5.70943187       4.88345397      21.44831436        1       0.00211731      -0.00351429       0.00017652
Al       8.49666734       4.84968606      21.61029389        1       0.00101792      -0.00114314      -0.00550888
Al      11.31305367       4.90427411      21.70543000        1      -0.00136903       0.00290198       0.00270140
Al       4.21656466       7.29154102      21.72437178        1       0.00156795       0.00739835      -0.00442752
Al       7.05043807       7.36130434      21.57656190        1       0.00341395      -0.00329729      -0.00319306
Al       9.77503844       7.25902405      21.78190196        1      -0.00051987      -0.00098082       0.00284323
Al      12.82242883       7.33334204      22.01475124        1      -0.00163197      -0.00340189       0.00065277
C        5.46678922       4.66474950      24.82089671        0      -0.00657653       0.03887176      -0.00094460
N        6.28273852       3.64601663      25.10484962        0      -0.01366753      -0.01051003      -0.00297467
C        7.50709832       4.24230699      25.22388622        0       0.03784378      -0.01270010       0.01811867
N        7.50956894       5.56357853      24.98886012        0      -0.00147505      -0.00047271       0.00707404
N        6.18589240       5.82436571      24.78409527        0      -0.00702706       0.00026753       0.00494515
H        4.40706575       4.60969266      24.58799548        0      -0.02047696      -0.00296608      -0.01732984
H        8.42308512       3.70176778      25.45880172        0      -0.00818541       0.01096537      -0.02735035
H        5.89329547       6.68973317      24.32871579        0      -0.00973654      -0.00023388       0.00252725
