104
Lattice="11.45512985522207 0.0 0.0 5.727564927611035 9.92043345827187 0.0 0.0 0.0 31.691342951089922" Properties=species:S:1:pos:R:3:tags:I:1:forces:R:3 energy=-420.0712890625 free_energy=-420.0712890625 stress="0.008863093331456184 -9.313225746154785e-08 1.7695128917694092e-08 -9.313225746154785e-08 0.008912566117942333 2.359040081501007e-06 1.7695128917694092e-08 2.359040081501007e-06 0.009157947264611721" pbc="T T F"
Al       1.51994598       0.85397543       9.87892847        6       0.00040867      -0.00019449       0.00180786
Al       4.38465290       0.85535896       9.89953703        6       0.00044396      -0.00025445       0.00156528
Al       7.24486158       0.85505033       9.91517579        6       0.00043118      -0.00025217       0.00130076
Al      10.10789009       0.85345826       9.89016615        6       0.00042462      -0.00012283       0.00167933
Al       2.95041468       3.33876413       9.88572345        6       0.00037595      -0.00032409       0.00156323
Al       5.81061440       3.34052124       9.89729410        6       0.00052590      -0.00036822       0.00142440
Al       8.67306672       3.34039417       9.88410641        6       0.00048577      -0.00035476       0.00154885
Al      11.53846845       3.33967273       9.87571072        6       0.00047604      -0.00039874       0.00162701
Al       4.37670414       5.81592394       9.92148846        6       0.00054141      -0.00002225       0.00141149
Al       7.24024170       5.81636015       9.90900547        6       0.00053921      -0.00000648       0.00156359
Al      10.10402273       5.81730019       9.90885321        6       0.00054767      -0.00014004       0.00155781
Al      12.96958709       5.81625067       9.91297085        6       0.00050153      -0.00009201       0.00152390
Al       5.81013608       8.29256916       9.91416773        6       0.00050981      -0.00006868       0.00161166
Al       8.67645512       8.29195835       9.91206618        6       0.00047321       0.00000388       0.00160745
Al      11.53858184       8.28980550       9.93561955        6       0.00056991       0.00014984       0.00133629
Al      14.40319482       8.29106795       9.94103921        6       0.00036447       0.00002724       0.00138103
Al       0.13558383       1.67268915      12.31148563        5      -0.00002733      -0.00177717      -0.00516593
Al       2.99960109       1.67500238      12.31810144        5      -0.00095315      -0.00293537      -0.00459881
Al       5.86162960       1.67220679      12.32702559        5      -0.00010399      -0.00094299       0.00182042
Al       8.72290615       1.67047644      12.32098274        5       0.00066188      -0.00134121      -0.00196309
Al       1.56916716       4.15145686      12.31369569        5      -0.00195044      -0.00055055      -0.00084909
Al       4.43188494       4.15388892      12.31870343        5      -0.00029777      -0.00058987       0.00424934
Al       7.29710918       4.15387799      12.31469515        5      -0.00026244      -0.00029264       0.00569333
Al      10.15624793       4.15221722      12.30915419        5       0.00199176      -0.00054851       0.00375142
Al       2.99588959       6.63785530      12.35484411        5       0.00062443      -0.00169567      -0.00031785
Al       5.86292495       6.64085706      12.33477126        5       0.00022577      -0.00137080       0.00587872
Al       8.73065451       6.63756399      12.34124754        5      -0.00031834       0.00002560       0.00249959
Al      11.59367426       6.64135541      12.34712463        5      -0.00132226      -0.00347635       0.00405239
Al       4.42751946       9.11934843      12.34726734        5       0.00042264      -0.00182633      -0.00175927
Al       7.29440557       9.11796863      12.33232831        5       0.00010104      -0.00099703      -0.00048135
Al      10.16025605       9.11635077      12.34028873        5      -0.00085201      -0.00060675       0.00536416
Al      13.01943637       9.11405017      12.35919286        5       0.00031714       0.00025661       0.00358118
Al       0.13840834      -0.00495471      14.64414938        4       0.00077267       0.00056736       0.00377928
Al       3.00436692      -0.00126956      14.64258617        4      -0.00060614      -0.00040552       0.00225189
Al       5.86164809      -0.00208969      14.67456209        4       0.00054368      -0.00015279       0.00169364
Al       8.72823635      -0.00659854      14.67590083        4      -0.00006512       0.00001912       0.00127648
Al       1.57089752       2.47094387      14.62086204        4      -0.00090903      -0.00090092       0.00196609
Al       4.42882233       2.46832350      14.62781893        4       0.00043095       0.00024983       0.00202815
Al       7.30064231       2.46969714      14.62812331        4       0.00014297      -0.00013278       0.00176279
Al      10.16564430       2.45796642      14.61158521        4      -0.00011804       0.00181995       0.00494083
Al       2.99341528       4.94988827      14.63323245        4       0.00042223       0.00008836       0.00168675
Al       5.86909397       4.96087120      14.62941696        4      -0.00027198      -0.00064253       0.00100811
Al       8.74345001       4.95709176      14.63159874        4      -0.00023438      -0.00016617       0.00147302
Al      11.59790576       4.95266490      14.62365329        4      -0.00069162       0.00007911       0.00318408
Al       4.42898290       7.44939552      14.66516359        4       0.00009773      -0.00075261       0.00122237
Al       7.30229703       7.44937528      14.65385913        4       0.00022469      -0.00035018       0.00155220
Al      10.17515192       7.45066873      14.67662664        4      -0.00033991      -0.00089511       0.00103972
Al      13.02458948       7.44441113      14.69081956        4       0.00033093       0.00015431       0.00178101
Al       1.54304373       0.75723484      16.99785968        3      -0.02326294      -0.00774835      -0.00806238
Al       4.38276990       0.73694637      16.99867668        3       0.00520871       0.00560654       0.00450190
Al       7.26019730       0.73784714      17.01940721        3      -0.00080058       0.00021856       0.00034034
Al      10.12213857       0.74712249      17.00906686        3       0.02108179       0.00535828       0.00525747
Al       2.94530196       3.21124695      16.96160013        3       0.00868678       0.00458107      -0.00630714
Al       5.83396434       3.21944983      16.93500430        3      -0.00436164      -0.00159819       0.00075896
Al       8.71687418       3.21985126      16.94444421        3      -0.00482988      -0.00171770      -0.00278810
Al      11.55766499       3.22855784      16.95229944        3       0.00070694      -0.00288447       0.00024847
Al       4.38450948       5.71838021      16.93788340        3       0.00036768       0.00021222       0.00187183
Al       7.27269477       5.72310489      16.94862704        3       0.00094562       0.00117463      -0.00523953
Al      10.14229065       5.72669919      16.96853920        3       0.00122049       0.00202186       0.00136584
Al      12.98921597       5.72461218      16.97616862        3       0.00016581       0.00018252       0.00192769
Al       5.83084505       8.21563593      16.99687713        3       0.00135766       0.00130778       0.00007183
Al       8.70768542       8.21967356      16.99401187        3      -0.00059831      -0.00207567       0.00384768
Al      11.57076024       8.20887305      17.06925059        3       0.00045920       0.00024353       0.00184807
Al      14.42555696       8.22132481      17.05208270        3      -0.00491521      -0.00393356      -0.00592834
Al       0.08685492       1.54663299      19.36533173        2      -0.00534682      -0.00200032      -0.00642475
Al       2.88830044       1.52548458      19.35327750        2       0.00103685       0.00125908      -0.00106576
Al       5.75556280       1.53174361      19.29151386        2      -0.00155852       0.00045083      -0.00142479
Al       8.65255362       1.53130048      19.31041632        2       0.00159467      -0.00149426      -0.00553215
Al       1.48192484       4.01296253      19.25630702        2      -0.00104955      -0.00079375       0.00301152
Al       4.32529032       4.02053085      19.22723247        2       0.00241879      -0.00095365      -0.00612685
Al       7.22963097       4.00929048      19.19582270        2      -0.00173419       0.00490737      -0.00330238
Al      10.11272993       4.02855261      19.23019761        2       0.00246075      -0.00009998      -0.00646009
Al       2.90922203       6.51967182      19.29490155        2      -0.00089263      -0.00195918      -0.00492747
Al       5.77854394       6.50433810      19.21006394        2      -0.00234854      -0.00124026      -0.00288531
Al       8.66959272       6.52074676      19.26060973        2       0.00057010      -0.00090293      -0.01005513
Al      11.52413544       6.49406090      19.37078084        2       0.00071961      -0.00182226       0.00010334
Al       4.36839995       8.99541239      19.40994277        2       0.00099761       0.00006697      -0.00320543
Al       7.22648386       9.01128873      19.34391309        2      -0.00010600       0.00096476      -0.00387382
Al      10.06852551       8.97562708      19.44025656        2       0.00044899       0.00097351      -0.00073371
Al      12.93973075       8.99146323      19.50181425        2       0.00083319       0.00025761       0.00092883
Al      -0.11143962      -0.26081342      21.92044698        1       0.00068354      -0.00103645      -0.00300312
Al       2.70303255      -0.20984049      22.11502887        1      -0.00023717       0.00317271       0.00189538
Al       5.58270311      -0.08226699      21.86342098        1       0.00128231      -0.00185390       0.00829881
Al       8.53634180      -0.07693193      22.02294294        1      -0.00122593      -0.00372904       0.00092669
Al       1.39700402       2.42633981      21.97911523        1      -0.00009803      -0.00092466       0.00565705
Al       4.27261757       2.42336281      21.63092780        1      -0.00302106      -0.00404490      -0.00235514
Al       7.12001279       2.37205608      21.59427871        1      -0.00210684       0.00327214      -0.00111725
Al      10.01218797       2.33194157      21.64680003        1      -0.00253427       0.00582513      -0.00323787
Al       2.77730990       4.85284413      21.57115291        1       0.00387384      -0.00348980       0.00171736
Al       5.68798629       4.81489302      21.52122509        1       0.00122112       0.00261076      -0.00741941
Al       8.44516288       4.79315717      21.57623338        1       0.00309164       0.00364296      -0.00110767
Al      11.22061442       4.89713919      21.87193392        1       0.00440747      -0.00462974       0.00103107
Al       4.22028500       7.25616744      21.69415881        1       0.00012102       0.00299615      -0.00518950
Al       7.01564860       7.26970296      21.54708325        1       0.00115557       0.00095633       0.00243446
Al       9.71007299       7.25163958      21.87404296        1       0.00148455      -0.00057910      -0.00057828
Al      12.80119903       7.28584714      21.89799390        1       0.00050638      -0.00196559      -0.00014191
C        5.07272430       5.07062962      24.90510137        0      -0.00711762       0.00830412      -0.00907182
N        5.70505642       3.90487738      25.06323251        0       0.00030578       0.00572791      -0.00707981
C        7.02284814       4.26625697      25.13512494        0       0.03640263      -0.00172407       0.01118758
N        7.24917807       5.58307288      25.01679455        0       0.00203645       0.00005284       0.00500612
N        5.98218932       6.08895504      24.91963138        0      -0.00941837      -0.00080317      -0.01462849
H        4.01486708       5.21444861      24.70374059        0      -0.00851580       0.01142504       0.00243382
H        7.84619296       3.55570219      25.21912284        0      -0.02159190       0.01033086      -0.01199657
H        5.83594656       7.00704734      24.49876218        0      -0.00578968      -0.00958869       0.00569459
