104
Lattice="11.45512985522207 0.0 0.0 5.727564927611035 9.92043345827187 0.0 0.0 0.0 31.691342951089922" Properties=species:S:1:pos:R:3:tags:I:1:forces:R:3 energy=-419.7850036621094 free_energy=-419.7850036621094 stress="0.00706755556166172 5.243346095085144e-07 -9.359791874885559e-08 5.243346095085144e-07 0.007121747359633446 1.5720725059509277e-06 -9.359791874885559e-08 1.5720725059509277e-06 0.007273863069713116" pbc="T T F"
Al       1.60925975       0.85306840       9.94069509        6       0.00013894      -0.00052723      -0.00014194
Al       4.47440945       0.85263447       9.95618385        6       0.00018400      -0.00047282      -0.00004170
Al       7.33461902       0.85176509       9.95963775        6       0.00010172      -0.00045244      -0.00019674
Al      10.19772159       0.85241946       9.94575279        6       0.00009959      -0.00053237      -0.00033004
Al       3.03931379       3.33452817       9.93245455        6       0.00018493      -0.00054195      -0.00016631
Al       5.90365293       3.33550617       9.94296408        6       0.00010037      -0.00052339      -0.00016426
Al       8.76566434       3.33512292       9.93229497        6       0.00007712      -0.00049719      -0.00021409
Al      11.62953837       3.33477139       9.92467069        6       0.00007645      -0.00044342      -0.00023958
Al       4.46861153       5.81550492       9.95411221        6       0.00017248      -0.00051452      -0.00025547
Al       7.33416886       5.81732623       9.95302482        6       0.00011789      -0.00056330      -0.00027628
Al      10.19744557       5.81649008       9.95206787        6       0.00014770      -0.00045646      -0.00019415
Al      13.06006772       5.81526002       9.95075288        6       0.00011435      -0.00044509      -0.00014729
Al       5.90252596       8.29397115       9.96377456        6       0.00010496      -0.00058644      -0.00065775
Al       8.76851076       8.29561237       9.97030432        6       0.00016760      -0.00063530      -0.00043287
Al      11.63021960       8.29357720       9.97870571        6       0.00013414      -0.00054154      -0.00021368
Al      14.49060839       8.29292829       9.97763489        6       0.00011360      -0.00054403      -0.00062361
Al       0.19362686       1.64308566      12.33553827        5      -0.00064642      -0.00140419       0.00227634
Al       3.05485746       1.64164496      12.34584035        5       0.00031908      -0.00155697       0.00126135
Al       5.91956967       1.63971151      12.35781744        5      -0.00025398      -0.00069891       0.00257081
Al       8.78371575       1.64335558      12.34413460        5      -0.00096448      -0.00176093       0.00320204
Al       1.62152541       4.11868370      12.33240759        5      -0.00038974      -0.00032797       0.00275302
Al       4.48466703       4.11879848      12.33804239        5       0.00033186      -0.00083861       0.00277006
Al       7.35423079       4.12049602      12.33813186        5      -0.00046188      -0.00123001       0.00375047
Al      10.21737965       4.11888442      12.32940331        5      -0.00039995       0.00017604       0.00474940
Al       3.05099405       6.60270234      12.36011030        5      -0.00022588      -0.00071732       0.00136824
Al       5.92145495       6.60274893      12.35279708        5      -0.00048268      -0.00037280      -0.00070912
Al       8.79005599       6.60374958      12.35959773        5       0.00059380      -0.00016788       0.00083573
Al      11.64891599       6.60280637      12.36871376        5      -0.00065697      -0.00011399       0.00182757
Al       4.48696448       9.08662159      12.35569679        5      -0.00049475      -0.00133886       0.00209732
Al       7.35521836       9.08641561      12.35663028        5      -0.00014472      -0.00105714       0.00084495
Al      10.21922558       9.08465840      12.37866160        5      -0.00040237      -0.00084227       0.00162444
Al      13.07629529       9.08362801      12.38009655        5       0.00008185      -0.00058953       0.00161345
Al       0.17837519      -0.04033249      14.64835878        4       0.00042857      -0.00018159       0.00138198
Al       3.04562640      -0.04191095      14.67183048        4       0.00012601      -0.00028403       0.00091391
Al       5.90948421      -0.04674402      14.70320106        4      -0.00016603      -0.00033509       0.00044394
Al       8.77350720      -0.03805283      14.67017813        4      -0.00016436      -0.00053677       0.00098238
Al       1.60992232       2.43657816      14.64357883        4      -0.00022424      -0.00117776       0.00000824
Al       4.46795641       2.42581284      14.64813132        4       0.00032229      -0.00018800       0.00100519
Al       7.34378927       2.43154380      14.65121796        4      -0.00019663      -0.00065888       0.00065913
Al      10.20540166       2.43373861      14.64147952        4      -0.00008688      -0.00049488       0.00060986
Al       3.02815029       4.90765509      14.63310610        4       0.00057211      -0.00011526       0.00145030
Al       5.90550948       4.91300845      14.63008903        4      -0.00035694      -0.00120929       0.00035184
Al       8.77893571       4.91672846      14.63965989        4      -0.00006982      -0.00087059       0.00084376
Al      11.62741556       4.91161746      14.63925964        4       0.00071909       0.00022352       0.00155407
Al       4.46952842       7.40322668      14.64824324        4      -0.00017930      -0.00105240       0.00056138
Al       7.35124068       7.40343955      14.65020328        4      -0.00019976      -0.00045624       0.00120186
Al      10.21038208       7.40492324      14.69059281        4       0.00026289      -0.00023797       0.00098805
Al      13.05715665       7.40189732      14.68802669        4       0.00011021      -0.00061909       0.00074187
Al       1.56202234       0.72633747      16.98881517        3      -0.00091898      -0.00172269       0.00013756
Al       4.41671161       0.69251405      17.02429433        3       0.00108779       0.00035208       0.00126806
Al       7.29206905       0.69870829      17.02024047        3      -0.00008111       0.00063127       0.00117497
Al      10.15432013       0.72083902      16.99666346        3       0.00070429      -0.00007170       0.00036156
Al       2.97529070       3.17809912      16.97352574        3       0.00069736      -0.00021211       0.00018128
Al       5.85486728       3.17249237      16.94682749        3       0.00007418      -0.00048896       0.00114868
Al       8.73504615       3.18332128      16.96728284        3       0.00011345      -0.00039676       0.00088903
Al      11.58663641       3.19030365      16.95760002        3      -0.00033336      -0.00035160       0.00312164
Al       4.40882798       5.66652227      16.92838913        3       0.00010805      -0.00038025       0.00079555
Al       7.29509693       5.67249933      16.93251457        3       0.00096668       0.00013106       0.00065900
Al      10.16492363       5.67577611      16.98263104        3       0.00000792      -0.00017179       0.00091260
Al      12.99923134       5.66496301      16.98589345        3      -0.00013205      -0.00027282      -0.00134318
Al       5.86377826       8.16381761      16.95022183        3       0.00039879       0.00037366       0.00091689
Al       8.74579268       8.17596575      17.00886767        3       0.00002879      -0.00040116       0.00097912
Al      11.58765870       8.16071108      17.08631486        3       0.00014886      -0.00022922       0.00088458
Al      14.43799376       8.16277721      16.99822761        3      -0.00076321      -0.00087062      -0.00128576
Al       0.07891368       1.52998668      19.33447762        2      -0.00050056      -0.00310571      -0.00128201
Al       2.93355629       1.47728071      19.32387042        2      -0.00196706       0.00080470      -0.00732149
Al       5.79024122       1.47982855      19.31363080        2       0.00099395      -0.00126060      -0.00006546
Al       8.67862954       1.49206491      19.34206306        2      -0.00113437      -0.00178455      -0.00435393
Al       1.48611142       3.94241115      19.30823120        2       0.00039741       0.00001785      -0.00230371
Al       4.35464524       3.96583166      19.23090939        2      -0.00134615       0.00162420      -0.00014267
Al       7.23984044       3.98038794      19.20674707        2       0.00063285      -0.00077500      -0.00309587
Al      10.12989872       3.95950521      19.27767095        2       0.00044537      -0.00017902      -0.00513517
Al       2.91404583       6.45340626      19.24813032        2       0.00006363       0.00010371      -0.00267618
Al       5.79343641       6.45781439      19.18684775        2       0.00130147      -0.00026395      -0.00171835
Al       8.68608005       6.47719636      19.23020678        2       0.00039216      -0.00187488      -0.00104989
Al      11.52093920       6.41957506      19.35873280        2       0.00031543       0.00153860      -0.00322312
Al       4.38519994       8.94903810      19.25556510        2       0.00075005       0.00066172      -0.00700230
Al       7.23825127       8.98114430      19.26446136        2       0.00048897       0.00005921      -0.00584870
Al      10.11416126       8.92450150      19.53827791        2       0.00050373       0.00018334      -0.00104072
Al      12.97865424       8.96435452      19.42882240        2       0.00153974      -0.00103344      -0.00089155
Al      -0.08680590      -0.12198672      21.63491183        1      -0.00133076       0.00001144       0.00303140
Al       2.63242192      -0.22875773      22.05311865        1      -0.00069237       0.00230213      -0.00164688
Al       5.64073272      -0.16856540      22.11033756        1      -0.00035262       0.00170980       0.00114303
Al       8.57019031      -0.30389753      22.09260100        1       0.00002327      -0.00334246       0.00310677
Al       1.41906363       2.34271741      22.07746659        1       0.00097394       0.00175791      -0.00118891
Al       4.26282257       2.32360250      21.61593545        1      -0.00024202       0.00137933       0.00109835
Al       7.10251601       2.29781217      21.61120718        1       0.00232395       0.00206963      -0.00081935
Al       9.88298870       2.29736429      21.80606304        1       0.00111186      -0.00022836       0.00263114
Al       2.85006728       4.79049675      21.55106968        1       0.00206018       0.00213861      -0.00123873
Al       5.71438392       4.77883090      21.50814442        1       0.00046430       0.00068743      -0.00096774
Al       8.51755899       4.77259721      21.54744378        1       0.00213501       0.00038972       0.00016466
Al      11.40245878       4.87592631      22.09549884        1       0.00314027       0.00031403      -0.00246941
Al       4.28290676       7.25202159      21.51868996        1       0.00016779       0.00129355      -0.00706060
Al       7.04269503       7.25436929      21.51926171        1       0.00257388      -0.00034235       0.00196743
Al       9.75663302       7.22534304      21.93212762        1       0.00133254       0.00052220      -0.00386091
Al      12.81498839       7.26422173      21.67017851        1       0.00070384       0.00379869      -0.00143074
C        4.56578502       5.64066842      24.78788286        0      -0.03479094       0.00542632       0.00270580
N        5.02571005       4.38844624      24.84056165        0      -0.01126642      -0.01480774       0.00111670
C        6.38274346       4.54966368      24.93421369        0       0.02081799      -0.00529716       0.00968777
N        6.79448659       5.82415722      24.91488043        0       0.01185289      -0.00015066       0.00315080
N        5.61178030       6.51038231      24.86289772        0      -0.00221614       0.02696943      -0.00437647
H        3.53809839       5.95356989      24.62211619        0      -0.00660761      -0.00190555       0.00012903
H        7.09061915       3.72188915      24.94742731        0       0.00639348      -0.00814425       0.00186326
H        5.59891911       7.46134179      24.49845399        0      -0.00229313       0.02212899      -0.01263207
