104
Lattice="11.45512985522207 0.0 0.0 5.727564927611035 9.92043345827187 0.0 0.0 0.0 31.691342951089922" Properties=species:S:1:pos:R:3:tags:I:1:forces:R:3 energy=-419.8087463378906 free_energy=-419.8087463378906 stress="0.007355168927460909 5.899928510189056e-07 -7.35744833946228e-08 5.899928510189056e-07 0.007407187484204769 1.460779458284378e-06 -7.35744833946228e-08 1.460779458284378e-06 0.007549602538347244" pbc="T T F"
Al       1.60086088       0.85447861       9.93312450        6       0.00009214      -0.00054623      -0.00003197
Al       4.46614190       0.85374193       9.94918526        6       0.00008185      -0.00049399      -0.00003795
Al       7.32633666       0.85295151       9.95458830        6       0.00008073      -0.00046257      -0.00023145
Al      10.18932844       0.85421896       9.93966270        6       0.00010689      -0.00053539      -0.00029285
Al       3.03077786       3.33615860       9.92679542        6       0.00010280      -0.00057623      -0.00012014
Al       5.89535654       3.33697458       9.93784183        6       0.00008003      -0.00056281      -0.00025230
Al       8.75725278       3.33671459       9.92694016        6       0.00007116      -0.00053457      -0.00024166
Al      11.62106684       3.33620388       9.91887072        6       0.00007153      -0.00047912      -0.00009041
Al       4.46040586       5.81773834       9.95220189        6       0.00007410      -0.00062807      -0.00046509
Al       7.32561842       5.81944969       9.94992366        6       0.00007522      -0.00064856      -0.00046956
Al      10.18868941       5.81792319       9.94838048        6       0.00014394      -0.00050461      -0.00026915
Al      13.05168064       5.81707676       9.94743072        6       0.00005528      -0.00052622      -0.00016188
Al       5.89423247       8.29579354       9.96044177        6       0.00006542      -0.00061141      -0.00077141
Al       8.75985325       8.29733640       9.96481875        6       0.00013797      -0.00071154      -0.00038232
Al      11.62208571       8.29561885       9.97487419        6       0.00004500      -0.00066593      -0.00025473
Al      14.48237388       8.29509203       9.97609285        6       0.00005096      -0.00065695      -0.00076192
Al       0.18954321       1.64805894      12.33561960        5      -0.00049449      -0.00262581       0.00048202
Al       3.05003253       1.64635707      12.34529442        5      -0.00009355      -0.00271212      -0.00161516
Al       5.91434871       1.64231709      12.35564148        5      -0.00031394      -0.00062449       0.00118673
Al       8.78128736       1.64709246      12.34331563        5      -0.00128615      -0.00190794       0.00207813
Al       1.61682916       4.12131208      12.33667458        5      -0.00050246       0.00039959      -0.00124588
Al       4.47848760       4.12112723      12.33759253        5       0.00042439      -0.00046708       0.00195828
Al       7.34927683       4.12211035      12.33566608        5      -0.00043103      -0.00051638       0.00254627
Al      10.21479410       4.12167215      12.32980067        5      -0.00086394       0.00071363       0.00371365
Al       3.04515326       6.60501311      12.36097219        5      -0.00036253      -0.00048925       0.00007949
Al       5.91554563       6.60541161      12.35031087        5       0.00016540      -0.00030028      -0.00115280
Al       8.78781239       6.60754695      12.35816344        5      -0.00041314      -0.00043246      -0.00103202
Al      11.64409939       6.60644424      12.36984726        5      -0.00061076      -0.00031754       0.00073276
Al       4.48341566       9.08967050      12.35510421        5      -0.00059805      -0.00083481       0.00072238
Al       7.35180572       9.09091457      12.35674671        5      -0.00077144      -0.00115082      -0.00155992
Al      10.21482958       9.08901848      12.38041473        5      -0.00115855      -0.00127268      -0.00235370
Al      13.07160072       9.08740971      12.38061156        5       0.00023930      -0.00079479      -0.00040867
Al       0.17529927      -0.03478814      14.64950887        4       0.00028144      -0.00018573       0.00093576
Al       3.04363346      -0.03485749      14.67457069        4      -0.00004217      -0.00040239       0.00063686
Al       5.90858643      -0.04227005      14.70252728        4      -0.00070455      -0.00051117       0.00011140
Al       8.77137055      -0.03128458      14.66844828        4      -0.00012474      -0.00060489       0.00100752
Al       1.60826794       2.44339291      14.64582991        4      -0.00098065      -0.00206385      -0.00091995
Al       4.46712884       2.43297187      14.64875333        4      -0.00006307      -0.00055335       0.00052508
Al       7.33952372       2.43531929      14.64989293        4      -0.00011640      -0.00067450       0.00031431
Al      10.20413255       2.44325536      14.64349492        4      -0.00050824      -0.00144089      -0.00028051
Al       3.02765640       4.91603189      14.63974888        4       0.00001671      -0.00037794       0.00071348
Al       5.90105430       4.91767080      14.63128068        4      -0.00033984      -0.00129630      -0.00038897
Al       8.77427563       4.92033243      14.63803640        4       0.00013570      -0.00066347       0.00053133
Al      11.62600552       4.91844766      14.64481065        4       0.00052147       0.00012983       0.00118844
Al       4.46560911       7.40660226      14.64946346        4      -0.00001366      -0.00055205       0.00048439
Al       7.34628159       7.40422049      14.64515577        4      -0.00008498      -0.00000306       0.00118829
Al      10.20669558       7.41095191      14.69273378        4       0.00034066      -0.00036613       0.00073656
Al      13.05690807       7.40963783      14.68991744        4      -0.00075195      -0.00157564       0.00003341
Al       1.55606596       0.73091173      16.98892612        3       0.00009404      -0.00098056       0.00028424
Al       4.41546231       0.70283681      17.02609363        3       0.00030060      -0.00022519       0.00084020
Al       7.28825517       0.70306698      17.01834396        3       0.00013022       0.00004136       0.00102492
Al      10.15530191       0.72665848      16.99829318        3       0.00007831      -0.00039527       0.00045516
Al       2.97386718       3.18363330      16.97035504        3       0.00034729      -0.00020485       0.00055469
Al       5.85223896       3.17662191      16.94141742        3      -0.00001295      -0.00026164       0.00135306
Al       8.73207861       3.18707964      16.96215673        3       0.00000725      -0.00038726       0.00076162
Al      11.58148129       3.18984825      16.96864878        3       0.00019219      -0.00010885       0.00093819
Al       4.40867232       5.67310575      16.92934253        3       0.00011506      -0.00026350       0.00078050
Al       7.29786183       5.68164033      16.92567997        3       0.00006926      -0.00018450       0.00091311
Al      10.15911319       5.68152101      16.98398738        3       0.00074286      -0.00007818       0.00035014
Al      12.99761122       5.67300031      16.99062754        3      -0.00135919      -0.00163538      -0.00430619
Al       5.86517823       8.17410642      16.94566172        3       0.00001407      -0.00016099       0.00101540
Al       8.74438299       8.18104618      17.00356944        3       0.00003300      -0.00016065       0.00087951
Al      11.58690632       8.16528682      17.09531774        3      -0.00005003      -0.00021342       0.00019380
Al      14.43481719       8.16845005      16.99930569        3       0.00002599      -0.00031940       0.00027865
Al       0.07753981       1.52339265      19.34735330        2      -0.00076567      -0.00089861      -0.00155028
Al       2.92260908       1.47832554      19.32237299        2       0.00049207       0.00136126      -0.00315468
Al       5.78816820       1.48271883      19.31029205        2       0.00129807      -0.00044834       0.00227453
Al       8.67255376       1.49755124      19.33149401        2      -0.00065294      -0.00224094      -0.00123087
Al       1.49038471       3.94284653      19.30436076        2      -0.00123133       0.00010613       0.00194095
Al       4.35141738       3.96943579      19.22765673        2      -0.00114253       0.00034463      -0.00024252
Al       7.23626345       3.98417912      19.19589238        2       0.00266310       0.00022251       0.00535751
Al      10.13255883       3.96420845      19.26640395        2      -0.00104109       0.00024718      -0.00005098
Al       2.91008877       6.45452210      19.25075786        2       0.00092095       0.00125684      -0.00035922
Al       5.79473433       6.46161212      19.18385995        2      -0.00104463       0.00026637      -0.00067057
Al       8.68146141       6.48938236      19.22527442        2       0.00070101      -0.00401457       0.00410753
Al      11.51924562       6.42316490      19.36377182        2       0.00130739       0.00148203      -0.00155982
Al       4.38213892       8.95269759      19.26111989        2       0.00105660      -0.00023134      -0.00588075
Al       7.23795927       8.98071933      19.26378161        2      -0.00026997       0.00118671      -0.00367999
Al      10.11394823       8.93351229      19.53272408        2       0.00011655      -0.00042113      -0.00043226
Al      12.98217400       8.96437990      19.45325828        2       0.00024642      -0.00083366      -0.00202771
Al      -0.08575655      -0.14315715      21.64952141        1      -0.00134793       0.00114199       0.00115831
Al       2.63744498      -0.21611168      22.07235582        1      -0.00151019      -0.00004408      -0.00265704
Al       5.63727973      -0.16889740      22.10647863        1      -0.00091361       0.00112734       0.00008495
Al       8.56395593      -0.28499915      22.09568171        1      -0.00115874      -0.00337704       0.00109453
Al       1.40961797       2.34118049      22.10736642        1       0.00205430       0.00225905      -0.00489757
Al       4.26726086       2.31982957      21.60822514        1      -0.00229704       0.00146053       0.00257053
Al       7.09695922       2.31038686      21.60498478        1       0.00236177      -0.00065218       0.00028079
Al       9.87555418       2.30517844      21.78218694        1       0.00241387      -0.00002165       0.00246762
Al       2.85873641       4.78480499      21.55121318        1      -0.00171705       0.00259335       0.00032367
Al       5.71115439       4.78408912      21.49828190        1       0.00014215       0.00057034       0.00552427
Al       8.50504169       4.77865120      21.54250497        1       0.00300925      -0.00066567      -0.00104644
Al      11.38800354       4.86038518      22.08487835        1       0.00340303       0.00186627      -0.00437684
Al       4.26908318       7.25294301      21.52769366        1      -0.00039559       0.00291059      -0.00829404
Al       7.03789435       7.25944167      21.51488095        1       0.00207855       0.00058812       0.00223542
Al       9.74347466       7.22048106      21.93384579        1       0.00144024       0.00114411      -0.00407781
Al      12.81168719       7.25171474      21.70211859        1       0.00039208       0.00398591      -0.00461650
C        4.61478773       5.59939129      24.78046022        0      -0.01941431      -0.01076310       0.00076187
N        5.07791352       4.34842422      24.83952812        0       0.00539396       0.00888415       0.00597520
C        6.43384507       4.51479633      24.95103909        0      -0.01276283       0.00038689       0.00221366
N        6.84301154       5.78982344      24.93315066        0      -0.00531045      -0.00130432      -0.00076762
N        5.65795672       6.47368651      24.86377019        0      -0.01143377       0.01342073      -0.00650615
H        3.58374266       5.89998629      24.60704049        0       0.01860734       0.01118717       0.00391600
H        7.13810905       3.68422358      24.97428612        0       0.01719422       0.00137117       0.00515445
H        5.64139699       7.42151326      24.48852902        0       0.00455594       0.00371071      -0.00179025
