104
Lattice="11.45512985522207 0.0 0.0 5.727564927611035 9.92043345827187 0.0 0.0 0.0 31.691342951089922" Properties=species:S:1:pos:R:3:tags:I:1:forces:R:3 energy=-419.7320251464844 free_energy=-419.7320251464844 stress="0.007158129941672087 6.346963346004486e-07 -6.426125764846802e-08 6.346963346004486e-07 0.007211804855614901 1.4035031199455261e-06 -6.426125764846802e-08 1.4035031199455261e-06 0.007348223589360714" pbc="T T F"
Al       1.61617608       0.85384669       9.94149428        6       0.00021727      -0.00060519      -0.00032734
Al       4.48140699       0.85274824       9.95674460        6       0.00022596      -0.00047424      -0.00021183
Al       7.34177434       0.85193731       9.95991352        6       0.00016372      -0.00047096      -0.00039125
Al      10.20478262       0.85344395       9.94689534        6       0.00017796      -0.00061085      -0.00062048
Al       3.04599543       3.33500551       9.93294374        6       0.00027582      -0.00061435      -0.00037802
Al       5.91123343       3.33553402       9.94341840        6       0.00009952      -0.00053338      -0.00042339
Al       8.77319269       3.33537636       9.93321870        6       0.00008506      -0.00058458      -0.00058633
Al      11.63679444       3.33503231       9.92547400        6       0.00014804      -0.00051735      -0.00052400
Al       4.47592171       5.81672005       9.95514183        6       0.00009870      -0.00063168      -0.00058020
Al       7.34170769       5.81868129       9.95497880        6       0.00008662      -0.00073144      -0.00079941
Al      10.20484752       5.81721514       9.95378805        6       0.00014435      -0.00051586      -0.00060165
Al      13.06709368       5.81626405       9.95212307        6       0.00018299      -0.00056669      -0.00044258
Al       5.90995694       8.29558774       9.96633671        6       0.00009490      -0.00080821      -0.00126448
Al       8.77579043       8.29725091       9.97258326        6       0.00019413      -0.00077538      -0.00086779
Al      11.63765463       8.29532058       9.98032494        6       0.00015363      -0.00072850      -0.00050356
Al      14.49740570       8.29462954       9.97960239        6       0.00015668      -0.00075957      -0.00104219
Al       0.19956778       1.64410921      12.33974033        5      -0.00085596      -0.00441197      -0.00075618
Al       3.06052490       1.64201031      12.35056392        5      -0.00008573      -0.00397108      -0.00230664
Al       5.92336748       1.63738945      12.36096292        5       0.00023211      -0.00080336       0.00055527
Al       8.79023807       1.64317538      12.34618175        5      -0.00181330      -0.00304229       0.00179079
Al       1.62697472       4.11495221      12.33825767        5      -0.00047612       0.00115786      -0.00299440
Al       4.48781518       4.11527871      12.33995571        5       0.00089196      -0.00033036       0.00122979
Al       7.35845812       4.11659721      12.33732529        5      -0.00048025      -0.00048892       0.00296416
Al      10.22506306       4.11528337      12.33059367        5      -0.00180972       0.00103977       0.00361162
Al       3.05408834       6.59842851      12.36234045        5      -0.00001876       0.00035063      -0.00084635
Al       5.92455483       6.59863708      12.35162410        5       0.00049751       0.00008403      -0.00154455
Al       8.79806122       6.60078571      12.35819511        5      -0.00078523      -0.00011612       0.00000061
Al      11.65439188       6.59935488      12.37206473        5      -0.00056149       0.00089395       0.00036175
Al       4.49225794       9.08405874      12.35377057        5      -0.00030772      -0.00098495       0.00185487
Al       7.36242019       9.08526814      12.35855076        5      -0.00096403      -0.00117091      -0.00060463
Al      10.22515347       9.08413157      12.38509097        5      -0.00107210      -0.00172485      -0.00319205
Al      13.07994949       9.08198841      12.38423243        5       0.00053157      -0.00125229      -0.00254428
Al       0.17976606      -0.04426597      14.64741588        4       0.00061418      -0.00012875       0.00087027
Al       3.04970495      -0.04506455      14.67664474        4       0.00011021      -0.00030774       0.00052991
Al       5.91490792      -0.05097277      14.70917442        4      -0.00104974      -0.00052644      -0.00070712
Al       8.77738012      -0.03936134      14.66571282        4      -0.00011211      -0.00087156       0.00157140
Al       1.61474230       2.43760502      14.64812994        4      -0.00094953      -0.00281430      -0.00126638
Al       4.47227801       2.42509548      14.65422318        4       0.00023591      -0.00059494       0.00032447
Al       7.34717615       2.42883634      14.65525832        4      -0.00021001      -0.00094769      -0.00002991
Al      10.20804767       2.43493423      14.64629808        4      -0.00018988      -0.00130931      -0.00032808
Al       3.03355870       4.90800784      14.63841567        4       0.00015761      -0.00044811       0.00083522
Al       5.90833660       4.90953409      14.63147036        4      -0.00018817      -0.00116472      -0.00008539
Al       8.78001215       4.91223731      14.63873209        4       0.00026069      -0.00079572       0.00049220
Al      11.62943587       4.90751695      14.63935936        4       0.00168295       0.00137937       0.00323977
Al       4.47260713       7.39928294      14.64626064        4       0.00011114      -0.00080590       0.00046580
Al       7.35407611       7.39549056      14.64425691        4      -0.00024355       0.00007718       0.00148863
Al      10.20818382       7.40103620      14.69148020        4       0.00169949      -0.00059136       0.00071869
Al      13.06327872       7.40191524      14.69306466        4      -0.00216866      -0.00370713      -0.00186790
Al       1.55648248       0.72510961      16.98478459        3       0.00104661      -0.00101126       0.00018502
Al       4.41829411       0.69412036      17.03069424        3       0.00142053      -0.00051877       0.00046978
Al       7.29433229       0.69799884      17.02111944        3       0.00031234      -0.00003428       0.00099811
Al      10.16228844       0.72103827      16.99646860        3      -0.00097540      -0.00092473      -0.00070211
Al       2.98188030       3.17690348      16.97519078        3       0.00025882      -0.00032622       0.00024198
Al       5.85793855       3.16875752      16.94495080        3       0.00018869      -0.00044595       0.00214269
Al       8.73613128       3.18060609      16.97078072        3       0.00006367      -0.00066056       0.00034986
Al      11.58578807       3.18511254      16.96433813        3       0.00053190       0.00054433       0.00181710
Al       4.41228113       5.66219361      16.92775100        3       0.00032117      -0.00024666       0.00063375
Al       7.30388577       5.67329885      16.92803642        3       0.00002644      -0.00030259       0.00074603
Al      10.16062775       5.67228704      16.98709841        3       0.00109558      -0.00043712      -0.00063748
Al      13.00095596       5.66310316      16.99293339        3      -0.00338391      -0.00389704      -0.01259004
Al       5.87018789       8.16464851      16.94229795        3       0.00002458      -0.00030379       0.00078391
Al       8.74983242       8.17286415      17.00739658        3       0.00019838      -0.00021111       0.00058624
Al      11.59068793       8.15670879      17.09212450        3       0.00001604      -0.00016147       0.00017477
Al      14.43954514       8.15851123      16.99610968        3       0.00012985      -0.00007412      -0.00020477
Al       0.07975869       1.52701216      19.33261740        2       0.00002111      -0.00091449       0.00145872
Al       2.93505416       1.46676949      19.31725131        2      -0.00000766       0.00264005       0.00433317
Al       5.79247686       1.47062171      19.32218936        2       0.00198748       0.00142207      -0.00296941
Al       8.67532794       1.49085334      19.34556015        2      -0.00040483      -0.00325235       0.00142029
Al       1.49278445       3.93439363      19.31552128        2      -0.00177048      -0.00018860      -0.00073900
Al       4.36059130       3.96055564      19.23232007        2      -0.00258025       0.00052861       0.00107674
Al       7.23912366       3.97752158      19.20340488        2       0.00287230      -0.00044137       0.00555591
Al      10.13332521       3.95017890      19.27937240        2      -0.00101400       0.00110059       0.00064396
Al       2.91335341       6.44775897      19.24500832        2       0.00199203       0.00023060      -0.00063135
Al       5.79590837       6.45123870      19.18147316        2       0.00038948       0.00111449       0.00110185
Al       8.68317149       6.48369550      19.23038536        2       0.00112889      -0.00610071       0.00530206
Al      11.51788848       6.41029096      19.35012243        2       0.00155066       0.00277726       0.00543314
Al       4.38451469       8.94630520      19.25201512        2       0.00109423       0.00053699       0.00092945
Al       7.23940306       8.97527378      19.25286253        2       0.00035717       0.00115462       0.00196559
Al      10.12051193       8.92159826      19.55071628        2       0.00019104      -0.00034500      -0.00082721
Al      12.98491679       8.95791706      19.44267406        2       0.00223320       0.00237804      -0.00302306
Al      -0.08531866      -0.10294643      21.60359048        1      -0.00251232      -0.00323547       0.00608707
Al       2.62487794      -0.22591115      22.05510888        1      -0.00023889       0.00126515      -0.00226635
Al       5.64084907      -0.18388358      22.15089250        1       0.00039417       0.00312639      -0.00269499
Al       8.56914440      -0.32800321      22.11433202        1      -0.00118814       0.00121182      -0.00498771
Al       1.41461061       2.32796559      22.11955873        1       0.00371949       0.00500944      -0.00853138
Al       4.26929738       2.30715104      21.61591307        1      -0.00375269       0.00216059       0.00078290
Al       7.08976709       2.28568492      21.61671047        1       0.00686127       0.00309528       0.00133948
Al       9.86166150       2.29184516      21.81854361        1       0.00345166       0.00020488       0.00280003
Al       2.86367259       4.77836286      21.54395272        1      -0.00083319       0.00308864       0.00142560
Al       5.71991879       4.77563275      21.50822114        1      -0.00067463      -0.00037302      -0.00348496
Al       8.51853709       4.76760064      21.54645272        1       0.00364279       0.00032685      -0.00128766
Al      11.42289124       4.87075398      22.12264847        1       0.00160756       0.00173301      -0.00550296
Al       4.28673528       7.24332471      21.51300732        1      -0.00137790       0.00289393      -0.01136692
Al       7.04449211       7.26203590      21.50694747        1       0.00285445      -0.00260565       0.00361718
Al       9.75693512       7.21692888      21.94194474        1       0.00225527       0.00025128      -0.00419346
Al      12.81439746       7.25902022      21.65937092        1      -0.00037166       0.00206784      -0.00009568
C        4.52774301       5.69339626      24.75471665        0       0.01276183       0.00016624       0.00609456
N        4.96547609       4.43282673      24.80491932        0      -0.00196743       0.00492149       0.00767997
C        6.32519197       4.57058969      24.91458631        0      -0.00000878       0.01481176       0.00431036
N        6.75849229       5.83804081      24.89930883        0      -0.00067843      -0.00403011       0.00407078
N        5.58835773       6.54539364      24.83719269        0      -0.00112293      -0.00043593       0.00037377
H        3.50732203       6.02625977      24.58692564        0      -0.02348314      -0.00142420      -0.00312503
H        7.01783994       3.72932911      24.93592921        0      -0.00082410       0.00452693       0.00187116
H        5.59379824       7.49928191      24.47858285        0      -0.00301745       0.00586053      -0.00320659
