104
Lattice="11.45512985522207 0.0 0.0 5.727564927611035 9.92043345827187 0.0 0.0 0.0 31.691342951089922" Properties=species:S:1:pos:R:3:tags:I:1:forces:R:3 energy=-420.1387939453125 free_energy=-420.1387939453125 stress="0.005148921627551317 1.514330506324768e-06 -3.3061951398849487e-07 1.514330506324768e-06 0.005197859834879637 1.7210841178894043e-06 -3.3061951398849487e-07 1.7210841178894043e-06 0.005354928784072399" pbc="T T F"
Al       1.42846873       0.82891858      10.00231312        6      -0.00042387       0.00093207       0.00202609
Al       4.29225311       0.82890264      10.00232450        6      -0.00041366       0.00091985       0.00205672
Al       7.15602655       0.82890738      10.00234348        6      -0.00041459       0.00091218       0.00208627
Al      10.01980825       0.82892837      10.00239903        6      -0.00041921       0.00092693       0.00205739
Al       2.86031377       3.30903524      10.00228887        6      -0.00042976       0.00093528       0.00203445
Al       5.72412852       3.30898961      10.00225940        6      -0.00042983       0.00090088       0.00204397
Al       8.58790054       3.30899470      10.00223609        6      -0.00040647       0.00090435       0.00206106
Al      11.45166686       3.30902540      10.00230432        6      -0.00041586       0.00093293       0.00203335
Al       4.29219168       5.78916485      10.00227945        6      -0.00044653       0.00094217       0.00205258
Al       7.15598945       5.78914464      10.00227618        6      -0.00043725       0.00092831       0.00203864
Al      10.01981142       5.78913619      10.00225484        6      -0.00038653       0.00093219       0.00206685
Al      12.88351459       5.78917646      10.00232855        6      -0.00041280       0.00094016       0.00208126
Al       5.72408884       8.26928619      10.00229654        6      -0.00042771       0.00095488       0.00206210
Al       8.58791478       8.26926143      10.00226931        6      -0.00039760       0.00094627       0.00206467
Al      11.45171517       8.26925517      10.00230715        6      -0.00040315       0.00093085       0.00210388
Al      14.31542260       8.26929448      10.00238532        6      -0.00041687       0.00093837       0.00210721
Al       0.00711252       1.65482224      12.38977043        5       0.00042465       0.00031821       0.00839821
Al       2.87094154       1.65488275      12.39053989        5       0.00028659       0.00034370       0.00837846
Al       5.73457673       1.65476670      12.39139436        5       0.00048092       0.00027751       0.00829218
Al       8.59855219       1.65467821      12.39065142        5       0.00038780       0.00029682       0.00855721
Al       1.43893034       4.13533282      12.39014800        5       0.00036648       0.00023149       0.00829108
Al       4.30277472       4.13509124      12.39077189        5       0.00028782       0.00037530       0.00835476
Al       7.16658033       4.13525821      12.39055868        5       0.00034860       0.00022948       0.00822355
Al      10.03043524       4.13508478      12.39007733        5       0.00051193       0.00030934       0.00820390
Al       2.87085839       6.61543884      12.39101908        5       0.00027045       0.00049712       0.00898467
Al       5.73457857       6.61551495      12.39037142        5       0.00029408       0.00042151       0.00856643
Al       8.59877149       6.61549802      12.38996048        5       0.00046494       0.00047308       0.00831487
Al      11.46250942       6.61538926      12.39100458        5       0.00052784       0.00050468       0.00892758
Al       4.30267754       9.09515967      12.39057269        5       0.00038035       0.00056472       0.00930599
Al       7.16676147       9.09542389      12.38994898        5       0.00032859       0.00055398       0.00861910
Al      10.03075745       9.09533908      12.39122983        5       0.00039372       0.00052119       0.00880986
Al      12.89423305       9.09546160      12.39171591        5       0.00051376       0.00036471       0.00941794
Al       0.00098371       0.00231650      14.70163070        4       0.00127892      -0.00050487      -0.00769674
Al       2.86485129       0.00216439      14.70130736        4       0.00091991      -0.00018975      -0.00483655
Al       5.72871820       0.00211781      14.70206186        4       0.00059503      -0.00011239      -0.00057765
Al       8.59220801       0.00200364      14.70252388        4       0.00011834      -0.00042501      -0.00177486
Al       1.43272057       2.48249314      14.70086819        4       0.00155569      -0.00208234      -0.01174874
Al       4.29632272       2.48230101      14.69970849        4       0.00121930      -0.00172970      -0.01023142
Al       7.16046985       2.48214182      14.69881419        4       0.00117409      -0.00216562      -0.00805178
Al      10.02465293       2.48222081      14.69995850        4       0.00237284      -0.00251879      -0.01463762
Al       2.86447502       4.96256606      14.70085076        4       0.00061392       0.00010330      -0.00849507
Al       5.72842800       4.96281574      14.69842468        4       0.00078497      -0.00054575      -0.01050196
Al       8.59255858       4.96275879      14.69832013        4       0.00196072      -0.00100750      -0.01266908
Al      11.45604584       4.96261282      14.70055071        4       0.00212760      -0.00001379      -0.00810712
Al       4.29636015       7.44269156      14.70152800        4      -0.00023125       0.00059729      -0.00336223
Al       7.16051172       7.44280599      14.69949452        4       0.00116232       0.00009123      -0.00869285
Al      10.02439453       7.44279862      14.70058399        4       0.00121263       0.00060694      -0.00181999
Al      12.88779470       7.44277621      14.70263646        4       0.00015262       0.00085326       0.00103204
Al       1.42997534       0.82560622      17.01482529        3       0.00092382      -0.00311808      -0.01484540
Al       4.29304356       0.82621852      17.01355079        3      -0.00094074      -0.00375457      -0.01744870
Al       7.15730933       0.82369108      17.01870325        3       0.00099693      -0.00957151      -0.01884556
Al      10.02130445       0.82539600      17.01235230        3       0.00213576      -0.00408437      -0.01904909
Al       2.86081282       3.30563018      17.00785592        3       0.00063297      -0.00346297      -0.02099848
Al       5.72416751       3.30586419      17.00549509        3      -0.00036108      -0.00120240      -0.02627412
Al       8.59143098       3.30504427      17.00469957        3       0.00177235      -0.00237692      -0.02869194
Al      11.45390326       3.30543475      17.00822445        3       0.00154730      -0.00299388      -0.01726004
Al       4.29288153       5.78760588      17.00888757        3      -0.00011114      -0.00119491      -0.01932749
Al       7.15701902       5.78760326      17.00361910        3       0.00017636      -0.00302008      -0.01634513
Al      10.02150090       5.78690762      17.00831155        3       0.00234821      -0.00111382      -0.02159940
Al      12.88625463       5.78771762      17.01504337        3       0.00146737      -0.00137806      -0.01684294
Al       5.72483128       8.26715350      17.01047146        3       0.00000825      -0.00087107      -0.01749793
Al       8.58931256       8.26709970      17.01099820        3       0.00199985      -0.00074571      -0.01660299
Al      11.45466764       8.26887358      17.02226789        3       0.00263213      -0.00027975      -0.00747918
Al      14.31554712       8.26839994      17.02374369        3      -0.00260161      -0.00171554      -0.00893217
Al      -0.00170822       1.66156744      19.27524147        2       0.00173888      -0.00244601       0.01595377
Al       2.86283151       1.66551204      19.27897219        2      -0.00228586      -0.00388027       0.01230183
Al       5.72900948       1.67522417      19.25292322        2      -0.00112915      -0.00252143      -0.00376404
Al       8.59059541       1.67542526      19.25449921        2       0.00182299      -0.00206888      -0.00417889
Al       1.43565169       4.11790299      19.27109235        2      -0.00092881       0.00425571       0.01284968
Al       4.29814254       4.13888729      19.26401064        2      -0.00603156      -0.00095861      -0.00773940
Al       7.16541973       4.12478632      19.25968073        2       0.00028364       0.00097366       0.00016333
Al      10.01341596       4.13932967      19.26017964        2       0.00859082      -0.00301065       0.00060146
Al       2.87146570       6.60551060      19.28575126        2       0.00010909       0.00174047       0.01348958
Al       5.73211798       6.61440370      19.26681242        2      -0.00065115       0.00527991      -0.00728907
Al       8.58593849       6.60857622      19.26151376        2       0.00269369       0.00628618      -0.00658808
Al      11.45237693       6.60183247      19.27367392        2       0.00161636       0.00329688       0.01741844
Al       4.30850531       9.10394094      19.27959566        2      -0.00108074      -0.00082337       0.01495300
Al       7.16025802       9.08775030      19.27437493        2       0.00195700       0.00492231       0.01147689
Al      10.00699385       9.10535024      19.27940394        2       0.00461247      -0.00357100       0.03024038
Al      12.88804254       9.09724479      19.33304945        2      -0.00110403       0.00029119       0.00126379
Al      -0.02016239      -0.03168383      21.70828018        1      -0.00237384      -0.00336135       0.01034956
Al       2.87235949      -0.01972394      21.71690787        1      -0.00037468      -0.00261102       0.01104784
Al       5.71657563       0.02993489      21.68553551        1      -0.00110329       0.00098115       0.00617483
Al       8.57653913       0.02424735      21.68541379        1      -0.00126528       0.00268156       0.00518565
Al       1.43850459       2.51077839      21.69815846        1       0.00027742       0.00369551       0.01320610
Al       4.32655994       2.49856520      21.61052068        1      -0.00536839       0.00176383      -0.01793436
Al       7.17038553       2.50098087      21.61757503        1      -0.00280690       0.00605290      -0.00677074
Al       9.99905828       2.51116414      21.63465856        1       0.00844746      -0.00599443      -0.03072188
Al       2.89404490       4.97102350      21.67555484        1      -0.00031651      -0.00129347      -0.01555775
Al       5.73210381       4.94801545      21.48457832        1       0.00517413       0.00105952       0.03026037
Al       8.59097230       4.96471908      21.52525777        1      -0.00335395      -0.00358885       0.02356372
Al      11.43604295       4.96616426      21.66258233        1       0.00372605      -0.00432853      -0.02320224
Al       4.32484819       7.41386215      21.70151945        1      -0.00557048       0.00240483      -0.00134792
Al       7.15024646       7.39929818      21.64656221        1      -0.00199445       0.00155988      -0.00963778
Al       9.98249858       7.40251450      21.68854002        1      -0.00228016      -0.00188517       0.00358843
Al      12.89064735       7.40665073      21.73006979        1       0.00081009      -0.00465948       0.01503604
C        6.13346416       3.88659330      24.86441921        0       0.00513776      -0.00275367      -0.07386580
N        7.36736603       3.37403179      24.85165759        0      -0.06947351      -0.08216778       0.05351697
C        8.17853954       4.47804822      24.83177771        0      -0.06140751       0.04120701      -0.04200456
N        7.51447775       5.64026458      24.78122288        0       0.03660226       0.07109453       0.02981080
N        6.20488678       5.24855845      24.84971714        0       0.03778252       0.00707955       0.01488786
H        5.20217286       3.33448856      24.75373002        0       0.02980283       0.00687318       0.03475612
H        9.26605965       4.42780948      24.74015938        0      -0.07838883       0.00252438       0.06649681
H        5.46901836       5.87205537      24.51511977        0       0.06887098      -0.01533191       0.03159576
