104
Lattice="11.45512985522207 0.0 0.0 5.727564927611035 9.92043345827187 0.0 0.0 0.0 31.691342951089922" Properties=species:S:1:pos:R:3:tags:I:1:forces:R:3 energy=-419.85882568359375 free_energy=-419.85882568359375 stress="0.009111737832427025 2.9709190130233765e-07 -1.7229467630386353e-07 2.9709190130233765e-07 0.009151538833975792 2.0656734704971313e-06 -1.7229467630386353e-07 2.0656734704971313e-06 0.009353527799248695" pbc="T T F"
Al       1.43806673       0.84582015       9.86964821        6       0.00100245      -0.00020190       0.00076159
Al       4.30261325       0.84153201       9.88882073        6       0.00098967       0.00000361       0.00064525
Al       7.16483699       0.84325840       9.90852128        6       0.00098505      -0.00004129       0.00045128
Al      10.02670486       0.84783104       9.88341191        6       0.00104214      -0.00027241       0.00065849
Al       2.86683429       3.32811192       9.89164555        6       0.00108924      -0.00012514       0.00041126
Al       5.73158303       3.32398328       9.89682978        6       0.00096828       0.00008634       0.00040962
Al       8.59482167       3.32565654       9.88992055        6       0.00092408       0.00005586       0.00037362
Al      11.45947171       3.32795244       9.88418792        6       0.00098669      -0.00010401       0.00043585
Al       4.29589172       5.81015603       9.93226195        6       0.00102485      -0.00031877      -0.00004058
Al       7.15960528       5.80814394       9.91371674        6       0.00100852      -0.00023611       0.00020319
Al      10.02580851       5.80701369       9.91996819        6       0.00094245      -0.00013732       0.00009967
Al      12.88823303       5.81105302       9.93204584        6       0.00106647      -0.00036505      -0.00009147
Al       5.72988758       8.28890555       9.90740390        6       0.00097353      -0.00030781       0.00045245
Al       8.59694632       8.28529420       9.90045619        6       0.00094361      -0.00024945       0.00053921
Al      11.46134954       8.28714426       9.93724280        6       0.00089531      -0.00034217       0.00014789
Al      14.32018357       8.28946226       9.93975255        6       0.00113254      -0.00039084       0.00016514
Al       0.04897547       1.65467054      12.31453300        5       0.00145723       0.00023660      -0.00328874
Al       2.91277543       1.65498325      12.31645964        5       0.00058568      -0.00022709      -0.00144145
Al       5.77483124       1.65400281      12.32843974        5       0.00136988       0.00031381       0.00108792
Al       8.64035788       1.65397923      12.32521026        5       0.00116004       0.00043231      -0.00098624
Al       1.48043455       4.13259078      12.32715467        5       0.00137380       0.00090483       0.00079857
Al       4.34314461       4.13309747      12.32538803        5       0.00135021       0.00052026       0.00287716
Al       7.21099920       4.13585662      12.31912393        5       0.00029780      -0.00019814       0.00336489
Al      10.07256680       4.13297276      12.32036279        5       0.00165138       0.00096968       0.00129452
Al       2.91200146       6.61874511      12.35647669        5       0.00137942       0.00118339       0.00343141
Al       5.77752238       6.62381378      12.33121352        5       0.00115408      -0.00018871       0.00576963
Al       8.64252202       6.62239059      12.33458366        5       0.00114916       0.00062833       0.00479846
Al      11.50633829       6.62017964      12.35045608        5       0.00052221       0.00122908       0.00506843
Al       4.34601988       9.10283047      12.34330912        5       0.00059537      -0.00040515       0.00045741
Al       7.20904975       9.10127750      12.32659520        5       0.00141475       0.00083560       0.00048456
Al      10.07241653       9.10127785      12.34284540        5       0.00123226       0.00041908       0.00391768
Al      12.93818994       9.10136288      12.36275100        5       0.00010104       0.00060802       0.00301991
Al       0.06248053      -0.00329983      14.64868174        4       0.00104832       0.00010110       0.00046220
Al       2.92224975      -0.00564282      14.64775890        4       0.00087154       0.00015964       0.00067763
Al       5.78244872      -0.00770652      14.68219455        4       0.00094920       0.00005944       0.00055082
Al       8.65570668      -0.00567341      14.67853010        4       0.00024429      -0.00044476      -0.00036486
Al       1.49235574       2.46368583      14.62291721        4       0.00042831       0.00039535       0.00104208
Al       4.34754678       2.45705638      14.63680469        4       0.00084802       0.00034049       0.00048797
Al       7.21282106       2.45999127      14.63575853        4       0.00141173       0.00023462       0.00001727
Al      10.08235152       2.45986713      14.62837052        4       0.00182307       0.00147354       0.00079632
Al       2.92119439       4.95147975      14.65040401        4      -0.00035560      -0.00001658      -0.00038394
Al       5.78045114       4.95198428      14.63128368        4       0.00103085       0.00016676      -0.00052671
Al       8.65452608       4.95527996      14.63220192        4       0.00101821      -0.00001312      -0.00024185
Al      11.51293069       4.95465449      14.63509826        4       0.00148593       0.00000991       0.00126612
Al       4.35637199       7.44180873      14.66932023        4       0.00067817       0.00023578       0.00040811
Al       7.22125915       7.45266141      14.65261541        4       0.00100185      -0.00084599      -0.00059043
Al      10.08980031       7.44860784      14.67119302        4       0.00088145       0.00009100       0.00056842
Al      12.94620691       7.44682416      14.68219155        4       0.00084504      -0.00015640       0.00098315
Al       1.49025024       0.80177289      17.00360032        3       0.00046378       0.00005914      -0.00214327
Al       4.32915747       0.78660191      17.01350462        3       0.00451417       0.00161168      -0.00131389
Al       7.21594242       0.78116673      17.01701868        3      -0.00047575      -0.00090823      -0.00052216
Al      10.11150940       0.79853143      16.98475729        3      -0.01629997      -0.00006536       0.01645689
Al       2.89410774       3.26036654      16.96609901        3       0.00419160       0.00005023      -0.00199350
Al       5.77551243       3.25626830      16.93184408        3       0.00008342       0.00041457       0.00111238
Al       8.66345473       3.26019369      16.94244241        3      -0.00368871      -0.00226214      -0.01087474
Al      11.52744521       3.27477678      16.97059264        3      -0.00122761      -0.00215016      -0.00215282
Al       4.32619881       5.76673479      16.95279726        3       0.00269365       0.00045348       0.00021981
Al       7.21835043       5.76577262      16.92146214        3       0.00071409       0.00076237       0.00112429
Al      10.09659272       5.77446092      16.96046971        3       0.00006669       0.00052205       0.00106547
Al      12.92880606       5.76450580      16.99977806        3       0.00399055       0.00435055      -0.00362027
Al       5.78557832       8.27129907      16.99388401        3       0.00112624      -0.00169176      -0.00331414
Al       8.65926472       8.27282484      16.99865672        3      -0.00051607      -0.00453863      -0.00082335
Al      11.52204257       8.26066503      17.06808519        3       0.00110471       0.00064316      -0.00062454
Al      14.36927704       8.27065421      17.04267842        3       0.00075672      -0.00049958       0.00039229
Al       0.06205948       1.59174421      19.36628642        2      -0.00321648      -0.00107670      -0.00159433
Al       2.85505801       1.59531697      19.36287869        2       0.00225896       0.00048620       0.00055331
Al       5.73211873       1.59597149      19.28692609        2       0.00397840       0.00026093      -0.00219160
Al       8.64870162       1.58103313      19.26362575        2      -0.00344302       0.00223419       0.00582865
Al       1.47368755       4.09001266      19.30071782        2      -0.00043744      -0.00142174      -0.00621202
Al       4.30016623       4.07538111      19.21542034        2       0.00165004      -0.00114240      -0.00172319
Al       7.20818344       4.08928080      19.17791398        2       0.00011468      -0.00265976       0.00345515
Al      10.07708794       4.07509386      19.21617193        2       0.00206909       0.00122032      -0.00594147
Al       2.89812846       6.58467380      19.30277176        2      -0.00456183      -0.00162614       0.00360933
Al       5.76567516       6.60743725      19.20598639        2      -0.00097241      -0.00362735       0.00480163
Al       8.63258619       6.59797218      19.23568220        2       0.00022745      -0.00397812      -0.00337765
Al      11.50536513       6.60559069      19.34230684        2       0.00052069      -0.00704504       0.00687366
Al       4.34359706       9.06681919      19.38109153        2      -0.00006229      -0.00148662       0.00139763
Al       7.21614718       9.09687786      19.33520123        2      -0.00101847      -0.00472030       0.00148185
Al      10.06370984       9.06522800      19.43052449        2       0.00102794      -0.00280737      -0.00134941
Al      12.93462314       9.05616117      19.55294874        2       0.00103323      -0.00056445      -0.00040205
Al      -0.17366678      -0.19810052      22.07806057        1       0.00327585      -0.00190399      -0.00492207
Al       2.74009096      -0.04067238      22.09760424        1       0.00214984      -0.00493953      -0.00459566
Al       5.58000324      -0.01402786      21.96374348        1      -0.00215573      -0.00085516      -0.00568664
Al       8.43208100       0.00227290      22.01167168        1       0.00272119      -0.00072305      -0.00439630
Al       1.40824821       2.56217882      22.18637900        1       0.00312541       0.00035741      -0.00803095
Al       4.28025027       2.46485900      21.59348507        1      -0.00216240      -0.00202435      -0.00175342
Al       7.10639301       2.47298319      21.58622626        1       0.00260951      -0.00054549       0.00072097
Al      10.02048812       2.40554941      21.61741808        1      -0.00069177       0.00067204      -0.00776188
Al       2.89422743       4.92461338      21.62698950        1      -0.00234507      -0.00197218      -0.00130072
Al       5.72987092       4.92596129      21.40250003        1       0.00025193      -0.00178179      -0.00736921
Al       8.52941467       4.85896150      21.57033429        1      -0.00082358      -0.00184500       0.00053684
Al      11.40223782       4.90099449      21.59353261        1      -0.00257757       0.00027759       0.00430051
Al       4.19529827       7.37471889      21.64697267        1       0.00170456      -0.00104476       0.00512837
Al       7.08926985       7.38482492      21.56964795        1      -0.00174321       0.00200117      -0.00274851
Al       9.82231287       7.25122346      21.76109218        1      -0.00139235       0.00105237      -0.00036617
Al      12.79675788       7.30230376      22.17711162        1       0.00384134       0.00137892      -0.00729450
C        5.71108370       4.44285377      24.72069519        0      -0.02500563       0.01378582       0.02340732
N        6.60485120       3.51736801      25.07939187        0      -0.00899075      -0.02336481       0.00595187
C        7.73541196       4.24631148      25.32538662        0       0.01708503      -0.01443244      -0.01910942
N        7.61427990       5.55896050      25.08452549        0       0.01618746       0.01723165       0.01183238
N        6.29617623       5.67465740      24.75733441        0      -0.01632168       0.02311734      -0.00525688
H        4.69301311       4.26493340      24.38393128        0      -0.02162989       0.00873997      -0.00618306
H        8.67887715       3.80916024      25.64131864        0       0.01135179      -0.00734652       0.00335762
H        5.95495170       6.50300451      24.26962729        0      -0.02210614       0.01926729      -0.00808584
