104
Lattice="11.45512985522207 0.0 0.0 5.727564927611035 9.92043345827187 0.0 0.0 0.0 31.691342951089922" Properties=species:S:1:pos:R:3:tags:I:1:forces:R:3 energy=-419.845947265625 free_energy=-419.845947265625 stress="0.00946744903922081 2.300366759300232e-07 -1.5692785382270813e-07 2.300366759300232e-07 0.0095070730894804 2.182554453611374e-06 -1.5692785382270813e-07 2.182554453611374e-06 0.009721691720187664" pbc="T T F"
Al       1.44040491       0.84676151       9.85738626        6       0.00115842      -0.00012774       0.00095497
Al       4.30501830       0.84250327       9.87787267        6       0.00113193       0.00004584       0.00087977
Al       7.16706374       0.84432545       9.89885126        6       0.00113849       0.00000425       0.00070289
Al      10.02887753       0.84882391       9.87210051        6       0.00120038      -0.00017947       0.00084996
Al       2.86913501       3.32933301       9.88069459        6       0.00123787      -0.00007051       0.00062868
Al       5.73369339       3.32523167       9.88647381        6       0.00111963       0.00011109       0.00066093
Al       8.59677691       3.32702337       9.87888453        6       0.00108423       0.00009618       0.00060556
Al      11.46161167       3.32916831       9.87273922        6       0.00112995      -0.00002314       0.00061370
Al       4.29791902       5.81114869       9.92383149        6       0.00116349      -0.00021174       0.00031187
Al       7.16143314       5.80909837       9.90427918        6       0.00117325      -0.00016512       0.00050457
Al      10.02766467       5.80801048       9.91065603        6       0.00109843      -0.00005810       0.00040047
Al      12.89024763       5.81209465       9.92314255        6       0.00120325      -0.00024200       0.00027181
Al       5.73191558       8.28986686       9.89775277        6       0.00113681      -0.00022825       0.00067452
Al       8.59912395       8.28602332       9.89029521        6       0.00109738      -0.00018413       0.00079539
Al      11.46347701       8.28786820       9.92911081        6       0.00105136      -0.00025422       0.00047673
Al      14.32239411       8.29032268       9.93204173        6       0.00125677      -0.00027524       0.00047576
Al       0.05390524       1.65665268      12.30791046        5       0.00134758      -0.00055201      -0.00316541
Al       2.91584676       1.65575768      12.31298015        5       0.00150518      -0.00028512      -0.00426946
Al       5.77978149       1.65519312      12.32562705        5       0.00127786      -0.00005049      -0.00089321
Al       8.64718202       1.65507466      12.32007228        5       0.00025568       0.00034761      -0.00056732
Al       1.48406494       4.13216547      12.32160500        5       0.00201675       0.00190063       0.00062270
Al       4.34799070       4.13377999      12.32446093        5       0.00091557       0.00055532      -0.00134445
Al       7.21603002       4.13617162      12.31825315        5       0.00036676      -0.00018841      -0.00052009
Al      10.07898343       4.13328608      12.31425456        5       0.00091709       0.00162435       0.00179776
Al       2.91698397       6.61952106      12.35906153        5       0.00107778       0.00191647      -0.00255614
Al       5.78291376       6.62449726      12.33337796        5       0.00091016       0.00022441       0.00279598
Al       8.64772313       6.62299799      12.33607103        5       0.00123776       0.00122036       0.00041647
Al      11.51091954       6.62066106      12.35289608        5       0.00073476       0.00211841       0.00055361
Al       4.35151173       9.10459405      12.33855727        5       0.00026991      -0.00081227       0.00094525
Al       7.21404496       9.10323818      12.32280199        5       0.00126638       0.00030580      -0.00100890
Al      10.07635726       9.10257077      12.34405958        5       0.00175981       0.00028862      -0.00095898
Al      12.94286716       9.10320716      12.36458912        5      -0.00002832       0.00012607      -0.00204207
Al       0.06800635      -0.00268943      14.64896820        4       0.00106906       0.00006149      -0.00006790
Al       2.92734200      -0.00525268      14.64770593        4       0.00100489       0.00024520       0.00068698
Al       5.78781978      -0.00739548      14.68378653        4       0.00108784       0.00014612       0.00047414
Al       8.66053920      -0.00534162      14.67936235        4       0.00048523      -0.00037876      -0.00091273
Al       1.49700770       2.46385376      14.62225636        4       0.00066060       0.00043921       0.00086461
Al       4.35196760       2.45690383      14.63573905        4       0.00110625       0.00044122       0.00035262
Al       7.21841043       2.45947342      14.63435054        4       0.00141183       0.00038051       0.00021027
Al      10.08878349       2.46127053      14.62828887        4       0.00150238       0.00094176       0.00043656
Al       2.92473214       4.95112500      14.64943293        4       0.00001368       0.00027494      -0.00041362
Al       5.78461190       4.95213613      14.62511784        4       0.00132701       0.00027204       0.00043705
Al       8.66118906       4.95486482      14.62946611        4       0.00096796       0.00018044       0.00024718
Al      11.51823267       4.95458706      14.63517346        4       0.00154386       0.00012562       0.00137016
Al       4.36135882       7.44225928      14.67007399        4       0.00082837       0.00036442       0.00039859
Al       7.22651311       7.45303410      14.65145858        4       0.00115462      -0.00097061      -0.00058924
Al      10.09589508       7.44944106      14.67264348        4       0.00099736       0.00011023       0.00052890
Al      12.95127867       7.44790009      14.68418040        4       0.00103895      -0.00016251       0.00102105
Al       1.48950082       0.79332712      16.99610971        3       0.00211875       0.00232665       0.00017049
Al       4.33459780       0.78492855      17.01502566        3       0.00252684       0.00059497      -0.00001353
Al       7.21896377       0.77590050      17.01779396        3       0.00036110       0.00009745       0.00037915
Al      10.11207561       0.79734128      16.98792256        3      -0.01314340      -0.00247295       0.01369336
Al       2.90757565       3.25888504      16.95778125        3       0.00105039       0.00025415       0.00071769
Al       5.77832602       3.25563557      16.93428757        3       0.00100131       0.00021655       0.00065538
Al       8.66847671       3.25784324      16.93954162        3      -0.00721289      -0.00397097      -0.01262326
Al      11.53012782       3.27160268      16.96963020        3       0.00103299      -0.00107256      -0.00127048
Al       4.33652160       5.76433741      16.95274288        3       0.00120843       0.00051355       0.00049743
Al       7.22447743       5.76473673      16.92464683        3       0.00054694       0.00054239       0.00048791
Al      10.09258171       5.77477052      16.96438872        3       0.00152522       0.00055901       0.00045834
Al      12.93471686       5.76592490      16.99852484        3       0.00193782       0.00141257      -0.00049464
Al       5.79328052       8.27103094      16.99187433        3      -0.00004289      -0.00205443      -0.00211809
Al       8.66363614       8.26747443      16.99771124        3       0.00091203      -0.00033531       0.00053384
Al      11.52786420       8.25917331      17.06884528        3       0.00104719       0.00025717       0.00063925
Al      14.37387914       8.26848591      17.04441663        3       0.00095652      -0.00094925       0.00059865
Al       0.05466553       1.58300057      19.37219766        2       0.00376188       0.00144503      -0.00305007
Al       2.85806413       1.58888376      19.36446402        2      -0.00001241       0.00096703       0.00097260
Al       5.73875678       1.59243886      19.29637479        2       0.00168435      -0.00052808      -0.00319919
Al       8.64905372       1.57715761      19.26995347        2      -0.00375614       0.00237077       0.00696105
Al       1.47734839       4.08600789      19.29422580        2      -0.00156830      -0.00237114      -0.00343463
Al       4.29949267       4.07282091      19.21304531        2       0.00184485      -0.00337510       0.00014539
Al       7.21298053       4.08095784      19.17497166        2       0.00033326      -0.00006745       0.00768677
Al      10.08000461       4.07285021      19.20800379        2       0.00334566       0.00085699      -0.00273409
Al       2.89952208       6.58076660      19.31464372        2      -0.00454236      -0.00158880      -0.00545572
Al       5.76798686       6.60762887      19.20884770        2      -0.00074001      -0.00519777       0.00249479
Al       8.63452423       6.59257540      19.24007666        2       0.00092574      -0.00340640      -0.00274752
Al      11.51056775       6.59956524      19.35079548        2      -0.00017276      -0.00543076       0.00498080
Al       4.34595518       9.05939066      19.38547611        2       0.00041424      -0.00009428       0.00331153
Al       7.21972223       9.08965501      19.33734855        2      -0.00202055      -0.00280666       0.00601021
Al      10.06816735       9.05931377      19.43176609        2       0.00154460      -0.00282093       0.00058396
Al      12.93972230       9.05266784      19.56889628        2       0.00075205      -0.00180091      -0.00227157
Al      -0.18317037      -0.21262156      22.09638452        1       0.00560501       0.00043813      -0.00786322
Al       2.73134668      -0.04669182      22.11703472        1       0.00264657      -0.00507428      -0.00661776
Al       5.56563514      -0.01985358      21.97654066        1      -0.00130260      -0.00133499      -0.00723769
Al       8.42423737      -0.00382755      22.03095238        1       0.00318684      -0.00087823      -0.00523472
Al       1.40938669       2.55922910      22.20646200        1       0.00278244       0.00000563      -0.01076883
Al       4.27749930       2.45735826      21.59807379        1      -0.00289643       0.00050133      -0.00108097
Al       7.10453213       2.46606768      21.59199511        1       0.00306215       0.00104801       0.00153571
Al      10.01638084       2.39755127      21.61340050        1       0.00074236       0.00162845      -0.00515490
Al       2.89338559       4.92005396      21.63247870        1      -0.00398763      -0.00310362      -0.00258920
Al       5.72826774       4.92128453      21.39175355        1       0.00028094      -0.00204567       0.00291769
Al       8.52275689       4.85039460      21.57768143        1      -0.00021375      -0.00181600       0.00025730
Al      11.39525181       4.89510898      21.60165418        1      -0.00187089       0.00113614       0.00379072
Al       4.18908310       7.37601308      21.64994073        1       0.00180311      -0.00656619       0.00692607
Al       7.08204973       7.38789016      21.56447255        1      -0.00240196       0.00123303      -0.00203799
Al       9.80847942       7.24244626      21.76473311        1       0.00161727       0.00385288      -0.00041448
Al      12.79575039       7.30192344      22.19529183        1       0.00283029       0.00046850      -0.01116349
C        5.67695381       4.49461178      24.71874128        0      -0.05952979       0.01033358       0.01042078
N        6.53257747       3.54171835      25.09384225        0       0.01070958      -0.03447958       0.01925114
C        7.68514842       4.23405026      25.34594852        0       0.03941955      -0.02890505      -0.01866153
N        7.61499319       5.54598288      25.08504026        0      -0.00189542       0.03621423       0.01484540
N        6.30227587       5.70580873      24.74973973        0      -0.01103122       0.03592103      -0.00978410
H        4.66115681       4.34698159      24.36103086        0      -0.02441866       0.01736308       0.00539804
H        8.61247679       3.77279134      25.67727777        0      -0.00679574      -0.01480122      -0.00236632
H        5.98685265       6.53951874      24.25166718        0      -0.00637599       0.00735140       0.00840673
