104
Lattice="11.45512985522207 0.0 0.0 5.727564927611035 9.92043345827187 0.0 0.0 0.0 31.691342951089922" Properties=species:S:1:pos:R:3:tags:I:1:forces:R:3 energy=-420.240478515625 free_energy=-420.240478515625 stress="0.009277906268835068 -7.869675755500793e-08 6.891787052154541e-08 -7.869675755500793e-08 0.00932467170059681 2.7157366275787354e-06 6.891787052154541e-08 2.7157366275787354e-06 0.009610346518456936" pbc="T T F"
Al       1.47734077       0.84788890       9.86566999        6       0.00104394       0.00059229       0.00439570
Al       4.34183761       0.84869196       9.88513081        6       0.00104011       0.00040813       0.00414714
Al       7.20274858       0.84904684       9.90131722        6       0.00112537       0.00041256       0.00404725
Al      10.06592889       0.84766662       9.87732270        6       0.00107189       0.00067226       0.00428424
Al       2.90835714       3.33247653       9.87850679        6       0.00089440       0.00047837       0.00409109
Al       5.76860715       3.33318225       9.88834098        6       0.00113692       0.00032879       0.00383296
Al       8.63050872       3.33447238       9.87697787        6       0.00134412       0.00015268       0.00409503
Al      11.49688686       3.33321654       9.86926213        6       0.00112369       0.00041517       0.00427056
Al       4.33521158       5.80884443       9.91336561        6       0.00101018       0.00082285       0.00382808
Al       7.19765145       5.80824450       9.89984431        6       0.00121171       0.00089619       0.00384926
Al      10.06190281       5.80977535       9.90060872        6       0.00126578       0.00068702       0.00403937
Al      12.92755688       5.80962070       9.90576597        6       0.00105859       0.00076043       0.00411699
Al       5.76796086       8.28695082       9.89950332        6       0.00114046       0.00078592       0.00413421
Al       8.63431733       8.28462528       9.89548885        6       0.00114538       0.00089600       0.00423071
Al      11.49680663       8.28348647       9.92102604        6       0.00119491       0.00093658       0.00414068
Al      14.36182260       8.28539919       9.92598798        6       0.00089619       0.00085222       0.00396350
Al       0.09810114       1.66476345      12.31865783        5      -0.00119312       0.00234513      -0.01349580
Al       2.95848820       1.66319289      12.32028609        5      -0.00119643       0.00218333      -0.00828480
Al       5.82073548       1.66155845      12.33224475        5       0.00084711       0.00302477      -0.00540281
Al       8.69174763       1.66459132      12.33367014        5       0.00056568       0.00124395      -0.01197716
Al       1.52823398       4.15346059      12.32923554        5      -0.00242294      -0.00403149      -0.01233572
Al       4.38414141       4.14791458      12.32806111        5       0.00150555       0.00007930      -0.00926651
Al       7.25924635       4.14620321      12.31904928        5       0.00095317       0.00070897      -0.00385828
Al      10.12969707       4.15138592      12.32529692        5      -0.00080243      -0.00282224      -0.00738922
Al       2.95322761       6.64069968      12.36011500        5       0.00084405      -0.00397645      -0.01118755
Al       5.82086440       6.63764754      12.33752135        5       0.00080921      -0.00040101      -0.00660979
Al       8.69518447       6.64149366      12.33628645        5      -0.00160184      -0.00375711      -0.00758923
Al      11.55429269       6.63970314      12.36142794        5      -0.00021252      -0.00487480      -0.00741917
Al       4.38911735       9.11219324      12.35298078        5       0.00074746       0.00165353      -0.01368721
Al       7.25699038       9.11592733      12.34154133        5      -0.00078085      -0.00087879      -0.01377177
Al      10.12101858       9.11483397      12.35942159        5      -0.00212396      -0.00049466      -0.01258283
Al      12.97838016       9.11289275      12.37091607        5       0.00145405      -0.00024002      -0.00971658
Al       0.09500346       0.00154049      14.65783777        4       0.00091959       0.00049361       0.00365588
Al       2.96280567       0.00385396      14.67514865        4       0.00081994      -0.00213946      -0.00630900
Al       5.82502300      -0.00204141      14.69297581        4       0.00082594       0.00102300       0.00366754
Al       8.68676714      -0.00349373      14.68171375        4       0.00102170       0.00101767       0.00392685
Al       1.52586073       2.47424142      14.63147417        4       0.00192042       0.00111549       0.00346411
Al       4.38552748       2.47682370      14.63078816        4       0.00281448       0.00032134       0.00537648
Al       7.26203400       2.46473582      14.62915338        4      -0.00072119       0.00421152       0.00901337
Al      10.13334712       2.47598030      14.64266018        4      -0.00303875      -0.00102099       0.00279949
Al       2.94803371       4.96773441      14.64367604        4       0.00600289      -0.00319518       0.00294819
Al       5.82806496       4.96122382      14.61024083        4      -0.00233716      -0.00214707       0.01028487
Al       8.70581330       4.96362972      14.62172172        4      -0.00144946      -0.00211390       0.00698605
Al      11.56395919       4.96491661      14.67053703        4      -0.00269900      -0.00376191      -0.01321272
Al       4.38121766       7.45164505      14.66954168        4       0.00404252      -0.00021446       0.00368640
Al       7.26194355       7.44034797      14.64555752        4       0.00058722       0.00210373       0.00423006
Al      10.13100993       7.45041863      14.67720369        4       0.00101141       0.00106399       0.00392001
Al      12.98689305       7.44893198      14.70801900        4       0.00075812       0.00098976       0.00356154
Al       1.50888213       0.77869644      16.97821718        3       0.00071881       0.00104141       0.00537818
Al       4.36362581       0.77680588      17.02613335        3       0.00155038       0.00105628      -0.00866926
Al       7.22620719       0.76744375      17.03172694        3       0.00347043       0.00094258      -0.00214205
Al      10.08727087       0.75849984      17.01493038        3       0.00202555       0.00362690       0.00303398
Al       2.94553741       3.25543320      16.95524430        3      -0.01755368      -0.01117901       0.00255782
Al       5.80143944       3.26078657      16.95581453        3       0.00492425      -0.00972452      -0.01487124
Al       8.67225998       3.25640273      16.95452786        3       0.00351425      -0.01053541      -0.01575571
Al      11.54652233       3.23974293      16.96676480        3       0.00102885       0.00135265       0.00331069
Al       4.35768508       5.75185032      16.95632757        3       0.00886503      -0.00019173      -0.00214097
Al       7.24173488       5.74802440      16.91840511        3       0.00058760       0.00071556       0.00553182
Al      10.13090464       5.76825406      16.96992556        3      -0.00108784      -0.00252684       0.00058519
Al      12.98349791       5.74422096      17.02152577        3      -0.02638596      -0.00230011      -0.01056900
Al       5.80628665       8.24085136      16.99778223        3       0.00082457       0.00100280       0.00359899
Al       8.67722817       8.23893213      17.00628634        3      -0.00024200       0.00060615      -0.00511007
Al      11.56193515       8.23941340      17.08049996        3      -0.01312928      -0.01437681      -0.02046946
Al      14.39680901       8.22655090      17.07894958        3       0.00065050       0.01482395      -0.01142438
Al       0.05833986       1.55701587      19.30623034        2      -0.00133398       0.00308205       0.01970305
Al       2.86204291       1.55490163      19.34958566        2       0.00208077      -0.00061521       0.00058627
Al       5.74787791       1.56853169      19.31130888        2       0.00367195       0.00321766       0.00083912
Al       8.60614231       1.57159817      19.31750411        2       0.00621966      -0.00318796      -0.00471169
Al       1.47554357       4.03951661      19.29850559        2       0.00097486       0.00076349      -0.00384423
Al       4.32176118       4.03554275      19.22621055        2       0.00041014       0.00786048      -0.00120782
Al       7.22307399       4.06712113      19.23053053        2      -0.00400123      -0.00522159      -0.00520689
Al      10.10540519       4.06783865      19.20262520        2      -0.00488434      -0.00276608       0.01364913
Al       2.90592397       6.53590625      19.33603433        2       0.00340983       0.00221250      -0.00360363
Al       5.75974785       6.54703099      19.22707433        2       0.00451903       0.00085561       0.00506042
Al       8.64438455       6.53857363      19.22198731        2       0.00005180       0.00429600       0.01222642
Al      11.52445533       6.52879655      19.38150698        2      -0.00342418       0.00380488      -0.00156527
Al       4.34511280       9.02458825      19.44495949        2       0.00203985       0.00196499       0.00058879
Al       7.20567387       9.04454296      19.34590600        2       0.00292729      -0.00112120      -0.00053477
Al      10.07289773       9.01333784      19.36195012        2      -0.00545502       0.00014809       0.01517683
Al      12.93413755       9.01493123      19.52092632        2       0.00058860       0.00167261       0.00029888
Al      -0.13540476      -0.25246984      21.98409283        1      -0.00292132       0.01397300      -0.00610343
Al       2.76110156      -0.16161147      22.05907415        1      -0.00690724       0.00407431       0.00142781
Al       5.51378217      -0.06114224      21.85395590        1       0.01714646       0.00628677       0.00486861
Al       8.49359712      -0.05397175      21.97778932        1       0.00223852       0.00343741       0.00272937
Al       1.43849461       2.46540320      21.95808166        1      -0.00607321       0.00160922       0.01020155
Al       4.25197477       2.44836080      21.57632836        1       0.01499060      -0.00020481       0.01836766
Al       7.11809753       2.44267409      21.67549037        1      -0.00076207      -0.00845154      -0.01889641
Al      10.02409929       2.40972391      21.55733883        1       0.00066466      -0.01392713       0.02280435
Al       2.80891045       4.87326796      21.62853538        1       0.00828694       0.00645953       0.00058443
Al       5.70391578       4.86400263      21.47566307        1      -0.00176644      -0.00267552       0.00579711
Al       8.49024398       4.84666263      21.60278905        1      -0.00227053      -0.00603505      -0.01004559
Al      11.27689876       4.91605607      21.74178812        1       0.00208513      -0.00024368       0.00586102
Al       4.23102512       7.26033356      21.74450167        1      -0.00085777       0.01329660      -0.01227811
Al       7.04458096       7.34062886      21.57095104        1       0.00617278      -0.01216941      -0.00569912
Al       9.76065808       7.26265435      21.79209780        1       0.00311644       0.00078272       0.00555584
Al      12.82737597       7.33474629      21.94117590        1      -0.00133159      -0.00317655       0.00573238
C        5.37899520       4.74804731      24.88149964        0       0.03227416      -0.11763947      -0.03574510
N        6.17009735       3.69072404      25.10284722        0      -0.02180526       0.06531747       0.03164251
C        7.42103061       4.24159910      25.18871337        0      -0.07976221       0.03767234      -0.04027978
N        7.45778553       5.56488079      24.96464596        0       0.03260194       0.01063915       0.02987525
N        6.13716328       5.87981790      24.82873271        0      -0.04009328      -0.00107543       0.00036747
H        4.31215029       4.72356367      24.66939213        0       0.02750124       0.02227928       0.01661322
H        8.33492881       3.66961340      25.35208708        0      -0.03582292       0.00539897      -0.01398224
H        5.84393886       6.74617948      24.37262199        0       0.05016458      -0.01453917       0.04141421
