104
Lattice="11.45512985522207 0.0 0.0 5.727564927611035 9.92043345827187 0.0 0.0 0.0 31.691342951089922" Properties=species:S:1:pos:R:3:tags:I:1:forces:R:3 energy=-419.9703063964844 free_energy=-419.9703063964844 stress="0.006471060216426849 8.223578333854675e-07 -3.1013041734695435e-07 8.223578333854675e-07 0.006518376525491476 1.9273720681667328e-06 -3.1013041734695435e-07 1.9273720681667328e-06 0.006713764742016792" pbc="T T F"
Al       1.42843753       0.84180524       9.93313725        6       0.00042713       0.00006413      -0.00098488
Al       4.29283235       0.83783624       9.94569736        6       0.00038398       0.00022933      -0.00100020
Al       7.15606108       0.83898964       9.95906438        6       0.00030054       0.00022106      -0.00104719
Al      10.01814739       0.84343415       9.94279131        6       0.00038223      -0.00001319      -0.00105345
Al       2.85751968       3.32306791       9.94872976        6       0.00054083       0.00011332      -0.00107659
Al       5.72311162       3.31917801       9.94987678        6       0.00026536       0.00026607      -0.00075952
Al       8.58735761       3.32017815       9.94707739        6       0.00020425       0.00029749      -0.00097640
Al      11.45096774       3.32281926       9.94442157        6       0.00031821       0.00017265      -0.00115764
Al       4.28781502       5.80602711       9.97606794        6       0.00049071      -0.00009093      -0.00109274
Al       7.15278469       5.80453337       9.96310236        6       0.00022668      -0.00006182      -0.00093813
Al      10.01868248       5.80348796       9.96962439        6       0.00019710       0.00004021      -0.00137950
Al      12.88057901       5.80652110       9.98009838        6       0.00039274      -0.00004326      -0.00166841
Al       5.72159466       8.28521523       9.95889801        6       0.00043403      -0.00006365      -0.00099798
Al       8.58832462       8.28273621       9.95414720        6       0.00030315      -0.00007237      -0.00096796
Al      11.45275599       8.28436515       9.98203669        6       0.00024371      -0.00015115      -0.00161831
Al      14.31176086       8.28597395       9.98228284        6       0.00050982      -0.00014097      -0.00122477
Al       0.03126535       1.65168177      12.32264710        5       0.00051064       0.00081160       0.00897763
Al       2.89748155       1.65270980      12.32563521        5       0.00018424       0.00067979       0.00688644
Al       5.75594464       1.65144748      12.34465725        5       0.00074731       0.00041871       0.00495851
Al       8.61672814       1.65180839      12.33458693        5       0.00195452       0.00040500       0.00741203
Al       1.46566183       4.13654477      12.34482155        5       0.00001438      -0.00093368       0.00560178
Al       4.32774892       4.13209467      12.35272258        5      -0.00003909       0.00032201       0.00173777
Al       7.18601370       4.13324524      12.34550579        5       0.00265533       0.00045538       0.00296123
Al      10.05283219       4.13354395      12.34252722        5       0.00099811       0.00008526       0.00485631
Al       2.89576603       6.61924688      12.37377027        5      -0.00001271      -0.00104208       0.00199773
Al       5.75793192       6.61668604      12.36465441        5       0.00125982       0.00084569      -0.00125272
Al       8.62021827       6.62082910      12.35791768        5       0.00170656      -0.00078778       0.00160108
Al      11.48363857       6.62091689      12.37129129        5       0.00201377      -0.00131654       0.00073282
Al       4.32268878       9.09618505      12.35712707        5       0.00223579       0.00109131       0.00476183
Al       7.19121307       9.09938946      12.34180081        5       0.00036736      -0.00062013       0.00469941
Al      10.05582492       9.09871908      12.36011822        5      -0.00020369      -0.00018331       0.00175981
Al      12.91450445       9.09940807      12.37743333        5       0.00234066      -0.00042512       0.00176907
Al       0.04230150      -0.00595787      14.64689883        4       0.00015279       0.00027722       0.00037345
Al       2.90181240      -0.00730539      14.64927007        4       0.00036945       0.00024755       0.00034278
Al       5.75970885      -0.00925924      14.67918658        4       0.00084268      -0.00021636      -0.00006527
Al       8.63633282      -0.00936800      14.67600608        4       0.00025717       0.00019251       0.00026613
Al       1.47151876       2.46464040      14.62889067        4       0.00027654       0.00027110       0.00017880
Al       4.32914831       2.45711382      14.65179953        4       0.00011616       0.00034992      -0.00357180
Al       7.19333660       2.46305110      14.63863213        4       0.00061379      -0.00061894      -0.00108417
Al      10.06277871       2.46066328      14.63705832        4       0.00056244      -0.00031564      -0.00188580
Al       2.90180028       4.94820328      14.65939846        4      -0.00017541       0.00061048      -0.00147495
Al       5.76306776       4.94890950      14.64973304        4       0.00013285       0.00052786      -0.00213831
Al       8.62923503       4.95622411      14.64101301        4       0.00124346      -0.00010419      -0.00158082
Al      11.49570645       4.95228833      14.64635011        4       0.00037574       0.00029652       0.00007291
Al       4.33938407       7.44238448      14.66875570        4      -0.00057627       0.00005869      -0.00002877
Al       7.20173078       7.45091221      14.65917860        4       0.00013155      -0.00023820      -0.00120692
Al      10.06028118       7.44465660      14.66491482        4       0.00192873       0.00037124       0.00100832
Al      12.92599442       7.43827925      14.67599876        4       0.00029946       0.00101868       0.00126767
Al       1.46984523       0.81183211      16.96614546        3       0.00161067       0.00016605       0.01261301
Al       4.32019803       0.80091418      16.99509737        3      -0.00149288      -0.00154509       0.00113932
Al       7.19234778       0.79331251      16.99807459        3       0.00080891      -0.00073710      -0.00024617
Al      10.07250444       0.80024252      17.00915794        3       0.00234167      -0.00097754      -0.00944322
Al       2.90008773       3.27468885      16.95760850        3      -0.00704631      -0.00166873       0.00147926
Al       5.75331984       3.26941480      16.94193868        3       0.00097620       0.00056270      -0.00132170
Al       8.62921348       3.26647698      16.91829773        3       0.00199938       0.00099118       0.00323307
Al      11.49879059       3.27127277      16.93587395        3       0.00373627       0.00317532       0.00851784
Al       4.31411100       5.77918126      16.96013614        3       0.00038510       0.00022020       0.00020364
Al       7.19358720       5.78759834      16.92684800        3       0.00013874      -0.00160303       0.00087746
Al      10.07507629       5.78813153      16.95311627        3       0.00114981      -0.00058398      -0.00073142
Al      12.92508123       5.79024056      16.96927189        3      -0.00374309      -0.00520374       0.00751134
Al       5.75560746       8.26909710      16.98231612        3       0.00092358       0.00088773       0.00075406
Al       8.63205511       8.27962861      16.99107987        3       0.00049559       0.00035555       0.00017086
Al      11.49843147       8.28370880      17.04390590        3      -0.00013755      -0.00250149      -0.00003808
Al      14.35324061       8.28156595      17.02524922        3      -0.00019836      -0.00128796       0.00067183
Al       0.05939597       1.62520659      19.33301687        2      -0.00046991      -0.00445035      -0.00955802
Al       2.85756846       1.62657289      19.35466115        2      -0.00333787      -0.00315248      -0.01192489
Al       5.73108962       1.61276589      19.24032620        2      -0.00188215      -0.00025251      -0.00337596
Al       8.63220282       1.60634861      19.25420712        2       0.00076695      -0.00222361      -0.01401958
Al       1.45723001       4.09840525      19.25891261        2       0.00057936      -0.00058979      -0.00615845
Al       4.31959848       4.08267878      19.21086663        2      -0.00505792       0.00215649      -0.00584300
Al       7.19161629       4.11029216      19.17179362        2       0.00105650      -0.00055521      -0.00582633
Al      10.06676120       4.09171207      19.18681222        2       0.00028008      -0.00001140      -0.00675780
Al       2.87149782       6.61034519      19.28548060        2       0.00292393       0.00120064      -0.00660893
Al       5.74114842       6.59901984      19.21513769        2       0.00092749       0.00491437      -0.01046622
Al       8.62684463       6.59927108      19.18540427        2      -0.00105188       0.00214271      -0.00121572
Al      11.49360149       6.60575571      19.31489293        2       0.00108471       0.00288574      -0.00840611
Al       4.33040707       9.09793714      19.38926251        2      -0.00085889      -0.00421312      -0.00603831
Al       7.19170155       9.10673004      19.31135315        2       0.00095033       0.00163713      -0.00933366
Al      10.04665120       9.08999548      19.43176349        2       0.00040265      -0.00046123      -0.00153597
Al      12.91642399       9.07371609      19.48440763        2       0.00050602      -0.00008291      -0.00040602
Al      -0.12565061      -0.14118374      21.98971578        1      -0.00300919      -0.00416620       0.00075305
Al       2.79339266      -0.03405797      22.01096587        1      -0.00166325      -0.00086317       0.00211852
Al       5.63981570       0.02264835      21.89447322        1      -0.00408530       0.00002594      -0.00053406
Al       8.47564769       0.04438143      21.91162991        1      -0.00115101      -0.00324303       0.00173933
Al       1.41763352       2.60275636      22.08757177        1       0.00070994      -0.00866444      -0.00339383
Al       4.27179235       2.47764848      21.57085571        1       0.00615880      -0.00229039       0.00414274
Al       7.13258566       2.50504248      21.50789086        1      -0.00141499      -0.00146709       0.01091372
Al      10.04546919       2.45178136      21.56605571        1      -0.00363540      -0.00303129       0.00179012
Al       2.87673022       4.93094075      21.52851695        1       0.00816941       0.00159532       0.02040213
Al       5.73860569       4.94467681      21.43631630        1      -0.00060161      -0.00199875      -0.00220524
Al       8.56806514       4.87128666      21.50752585        1      -0.00377626       0.00292177       0.00690748
Al      11.42618761       4.93583009      21.54815058        1      -0.00203568      -0.00107283       0.00394034
Al       4.22084489       7.36975156      21.64392093        1       0.00264470       0.00836143       0.00756064
Al       7.11816877       7.38670461      21.53086991        1      -0.00185442       0.00046116       0.00511460
Al       9.88127899       7.28829152      21.74730155        1      -0.00703483      -0.00249147       0.00192754
Al      12.81354363       7.28305999      22.11024172        1       0.00462963       0.00528315      -0.00112336
C        5.85134349       4.24759559      24.79456986        0      -0.02687538      -0.02287482      -0.01229028
N        6.87671885       3.42716789      25.04513879        0      -0.00562740       0.00605342       0.01827233
C        7.92163176       4.28541922      25.26380115        0       0.01208243      -0.00707541      -0.02630369
N        7.62125581       5.58179529      25.10928579        0      -0.01303716       0.00396251       0.00336366
N        6.27819665       5.53990682      24.86361055        0      -0.04445570       0.07516835      -0.04032102
H        4.84713494       3.95413141      24.49337219        0       0.02531851       0.01867891       0.01930418
H        8.93584589       3.96187679      25.48845064        0      -0.00454795      -0.01590233       0.00561913
H        5.80217615       6.33644099      24.43517770        0       0.03741700      -0.03988440       0.02239844
