104
Lattice="11.45512985522207 0.0 0.0 5.727564927611035 9.92043345827187 0.0 0.0 0.0 31.691342951089922" Properties=species:S:1:pos:R:3:tags:I:1:forces:R:3 energy=-419.6832580566406 free_energy=-419.6832580566406 stress="0.006674408446997404 4.6798959374427795e-07 -1.1082738637924194e-07 4.6798959374427795e-07 0.006730726454406977 1.92178413271904e-06 -1.1082738637924194e-07 1.92178413271904e-06 0.006927500478923321" pbc="T T F"
Al       1.62824332       0.84898989       9.95373627        6      -0.00030181      -0.00074236      -0.00112775
Al       4.49316627       0.84885422       9.96882497        6      -0.00022441      -0.00058238      -0.00091035
Al       7.35326645       0.84794557       9.96775072        6      -0.00035443      -0.00060891      -0.00091797
Al      10.21644436       0.84745183       9.95527944        6      -0.00032827      -0.00069060      -0.00118490
Al       3.05858341       3.32972494       9.94235929        6      -0.00022206      -0.00070796      -0.00120445
Al       5.92240850       3.33063356       9.95158717        6      -0.00031333      -0.00063820      -0.00078015
Al       8.78450670       3.33019845       9.94124109        6      -0.00043008      -0.00054795      -0.00109731
Al      11.64864135       3.33052857       9.93436050        6      -0.00043082      -0.00065862      -0.00127460
Al       4.48696892       5.80976004       9.95646675        6      -0.00012338      -0.00043995      -0.00059732
Al       7.35325976       5.81139744       9.95745056        6      -0.00025881      -0.00045832      -0.00066917
Al      10.21723478       5.81239931       9.95837096        6      -0.00041122      -0.00052022      -0.00086830
Al      13.07884227       5.81076069       9.95705760        6      -0.00032592      -0.00046391      -0.00093409
Al       5.92103736       8.28905576       9.96650765        6      -0.00026518      -0.00059885      -0.00109673
Al       8.78830641       8.29065114       9.97853358        6      -0.00034955      -0.00053893      -0.00109280
Al      11.64887579       8.28835562       9.98535237        6      -0.00024774      -0.00046011      -0.00098376
Al      14.50874741       8.28747630       9.97741772        6      -0.00022094      -0.00047785      -0.00094991
Al       0.20070804       1.62289287      12.33334939        5      -0.00062374       0.00313746       0.00398332
Al       3.06606896       1.62223864      12.34349796        5      -0.00009722       0.00250999       0.00530344
Al       5.93053395       1.62724804      12.35900806        5      -0.00132630      -0.00094713       0.00483198
Al       8.78606332       1.62468389      12.34235385        5       0.00164533       0.00100329       0.00556661
Al       1.63088846       4.10895626      12.31715660        5      -0.00023704      -0.00201917       0.00833934
Al       4.49892785       4.10763777      12.33462164        5      -0.00213175      -0.00172195       0.00406011
Al       7.36290568       4.10943820      12.33885584        5      -0.00002668      -0.00135582       0.00388206
Al      10.22028716       4.10787263      12.32557927        5       0.00114031      -0.00169318       0.00655188
Al       3.06146005       6.59422450      12.35503700        5      -0.00004148      -0.00281448       0.00328039
Al       5.93188076       6.59359299      12.34533043        5      -0.00048568      -0.00120258       0.00743180
Al       8.79722185       6.59188452      12.35727929        5       0.00080817      -0.00055376       0.00563989
Al      11.65907860       6.59497173      12.36239702        5      -0.00153141      -0.00236484       0.00246885
Al       4.49228314       9.07263517      12.35181247        5       0.00088605      -0.00151035       0.00521835
Al       7.36249432       9.07048583      12.35147799        5       0.00023757      -0.00103727       0.00598353
Al      10.22940786       9.06914807      12.36888995        5       0.00005802       0.00021875       0.00816341
Al      13.08622274       9.06945028      12.37448811        5      -0.00104078      -0.00013911       0.00600553
Al       0.18536373      -0.05741537      14.64605442        4      -0.00024304      -0.00042914       0.00068527
Al       3.04942118      -0.06432181      14.66239429        4       0.00027282       0.00005079       0.00144561
Al       5.90800272      -0.06492750      14.70351855        4       0.00010673      -0.00013102      -0.00008387
Al       8.77511189      -0.06169027      14.66766515        4      -0.00033024      -0.00028385       0.00096586
Al       1.61159306       2.41293537      14.63212432        4       0.00007941      -0.00012532       0.00121397
Al       4.47011447       2.40693073      14.64694576        4       0.00072589       0.00021372       0.00138198
Al       7.34976689       2.41457783      14.64996848        4      -0.00047316      -0.00063656       0.00145975
Al      10.20589726       2.40666221      14.63060100        4       0.00016277       0.00108714       0.00177030
Al       3.03376621       4.88931806      14.62018795        4       0.00015014      -0.00089887       0.00149731
Al       5.91336946       4.89696083      14.62095298        4      -0.00111538      -0.00163955       0.00160728
Al       8.78647593       4.90225272      14.63753775        4      -0.00120705      -0.00225279       0.00099938
Al      11.63347566       4.89178763      14.61514215        4       0.00011347      -0.00081257       0.00624673
Al       4.47495754       7.38837572      14.64024632        4      -0.00030595      -0.00182942       0.00135265
Al       7.35898206       7.39412112      14.65560902        4      -0.00274834      -0.00466895      -0.00030716
Al      10.21824767       7.38887999      14.68471982        4      -0.00040984      -0.00081093       0.00066123
Al      13.05748779       7.37755073      14.68834581        4       0.00037455      -0.00033997      -0.00068875
Al       1.55651907       0.70446156      16.98383860        3       0.00911687       0.00430297       0.00150061
Al       4.42923139       0.67599531      17.02746231        3      -0.00049566       0.00000470       0.00103597
Al       7.29994863       0.69052012      17.02536911        3       0.00119211       0.00360316      -0.00059263
Al      10.17225873       0.71239606      16.99228916        3      -0.00475041      -0.00027871      -0.00095020
Al       2.98072533       3.16268822      16.98076782        3      -0.00046473      -0.00261132      -0.00724193
Al       5.86573333       3.15609978      16.95364974        3      -0.00059546      -0.00036945       0.00068335
Al       8.75353775       3.17428398      16.98081695        3      -0.00881368      -0.00666315      -0.00315704
Al      11.58985895       3.18966678      16.96066760        3      -0.00011694      -0.00151568       0.00187076
Al       4.40472272       5.64723954      16.91541752        3       0.00321210       0.00080869       0.00350851
Al       7.29146470       5.64937550      16.93732702        3       0.00454005       0.00251308       0.00033863
Al      10.16474097       5.65790155      16.98078072        3      -0.00018327       0.00008854       0.00084376
Al      12.99723824       5.64414213      16.95784299        3       0.00246449       0.00170100       0.00772901
Al       5.86782559       8.15788603      16.95358047        3      -0.00029890      -0.00170723      -0.00006834
Al       8.74750991       8.15687210      17.00884194        3       0.00012361      -0.00112052       0.00327698
Al      11.59124204       8.14637566      17.06992445        3      -0.00080399      -0.00081819       0.00071767
Al      14.44087295       8.14897192      16.99568033        3       0.00034671      -0.00037418      -0.00304169
Al       0.08336056       1.53494396      19.32313193        2      -0.00048135      -0.00370020       0.00016613
Al       2.95022279       1.47223128      19.32972380        2      -0.00491750      -0.00034448      -0.01186540
Al       5.80176285       1.47241678      19.32613959        2       0.00000988      -0.00204004      -0.00128852
Al       8.68730294       1.47273075      19.37021487        2      -0.00050330       0.00049503      -0.00622119
Al       1.48423722       3.94536775      19.33292189        2       0.00026339      -0.00183259      -0.00930771
Al       4.35530492       3.96617485      19.23760931        2       0.00200252      -0.00003335      -0.00688035
Al       7.24833028       3.96673531      19.22660979        2      -0.00057053      -0.00068065      -0.01196968
Al      10.12275822       3.94848229      19.31319228        2       0.00200933      -0.00046973      -0.01273269
Al       2.92951139       6.44877741      19.23818559        2      -0.00561462      -0.00249803      -0.01010574
Al       5.80336356       6.45348529      19.18875147        2       0.00263002      -0.00204824      -0.00463246
Al       8.69577771       6.44951359      19.25243567        2       0.00000648       0.00075376      -0.01152876
Al      11.52332844       6.42279013      19.35384892        2      -0.00057511      -0.00198284      -0.00672682
Al       4.39537044       8.94800481      19.26282747        2      -0.00148945       0.00396199      -0.01038377
Al       7.24481151       8.98406703      19.26711799        2       0.00236045      -0.00428996      -0.00359681
Al      10.12234760       8.90525222      19.55608217        2       0.00137877       0.01076354      -0.01532535
Al      12.98094768       8.96522525      19.39210684        2       0.00382757      -0.00454280       0.00722256
Al      -0.10873912      -0.06924367      21.62577444        1       0.00122170      -0.00765112       0.00623538
Al       2.61474254      -0.24587699      22.00998158        1      -0.00143691       0.00278199      -0.00060627
Al       5.63743555      -0.16260277      22.15170706        1       0.00175917       0.00396482      -0.00325637
Al       8.56559695      -0.35142486      22.09110777        1       0.00190771       0.00388686      -0.00207544
Al       1.44789165       2.36105800      22.03840796        1      -0.00108289      -0.00002307      -0.00000270
Al       4.25723895       2.33852646      21.62175553        1       0.00945028      -0.00170272      -0.00094879
Al       7.12100794       2.27822167      21.64098987        1      -0.00230738       0.00084469      -0.00762213
Al       9.90039182       2.27145084      21.87599522        1      -0.00200717       0.00121123       0.00089887
Al       2.85231761       4.81734910      21.55687494        1       0.00804748      -0.00001662      -0.00382979
Al       5.73448170       4.76720056      21.51176587        1       0.00056658      -0.00098290       0.00137566
Al       8.55626844       4.75821927      21.56676355        1       0.00025407       0.00136148       0.00070899
Al      11.46181695       4.91784515      22.09402501        1      -0.00128028      -0.00314041       0.00066017
Al       4.30978338       7.25462131      21.47357036        1      -0.00043391      -0.00095894       0.00491281
Al       7.06650874       7.24508467      21.53012956        1       0.00092824      -0.00299336       0.00042486
Al       9.79549302       7.22693448      21.91586073        1       0.00369901       0.00346338      -0.00363197
Al      12.82031414       7.30281130      21.62797515        1      -0.00062549      -0.00100370       0.00287810
C        4.45460887       5.76337856      24.78081498        0      -0.03814653       0.00804964       0.00747331
N        4.89473603       4.50579907      24.85395500        0      -0.02785505      -0.04439728       0.00679472
C        6.25302226       4.64451194      24.93938202        0       0.00169992       0.04906917       0.00392862
N        6.68575350       5.91239833      24.89628953        0       0.00595724       0.01300537       0.00224178
N        5.51383483       6.61435065      24.82968024        0       0.02408023      -0.01749146       0.03607447
H        3.43073027       6.09323391      24.62725364        0      -0.01298071      -0.01005659      -0.00056455
H        6.94610954       3.80680682      24.96205708        0       0.03515721      -0.04469365       0.00826100
H        5.51354594       7.56849365      24.48255201        0       0.00104231       0.09153317      -0.04283606
