104
Lattice="11.45512985522207 0.0 0.0 5.727564927611035 9.92043345827187 0.0 0.0 0.0 31.691342951089922" Properties=species:S:1:pos:R:3:tags:I:1:forces:R:3 energy=-420.2684020996094 free_energy=-420.2684020996094 stress="0.004657648969441652 1.0472722351551056e-06 -2.7567148208618164e-07 1.0472722351551056e-06 0.0047232042998075485 1.9185245037078857e-06 -2.7567148208618164e-07 1.9185245037078857e-06 0.004916096106171608" pbc="T T F"
Al       1.42764856       0.82980585      10.00574456        6      -0.00064508       0.00086805       0.00144719
Al       4.29144125       0.82977527      10.00578377        6      -0.00061601       0.00087256       0.00154919
Al       7.15521231       0.82977640      10.00582613        6      -0.00063986       0.00083101       0.00157889
Al      10.01898725       0.82981372      10.00586784        6      -0.00064646       0.00084171       0.00150251
Al       2.85947963       3.30992946      10.00572982        6      -0.00062589       0.00092630       0.00151199
Al       5.72330344       3.30985791      10.00570068        6      -0.00064090       0.00090782       0.00151563
Al       8.58708030       3.30986449      10.00567506        6      -0.00063744       0.00091184       0.00152698
Al      11.45084378       3.30991761      10.00574365        6      -0.00061337       0.00092675       0.00148010
Al       4.29135061       5.79006825      10.00572246        6      -0.00063919       0.00096938       0.00157030
Al       7.15515947       5.79003246      10.00571669        6      -0.00063941       0.00095827       0.00153482
Al      10.01900368       5.79002787      10.00569680        6      -0.00058929       0.00096927       0.00157287
Al      12.88268518       5.79008589      10.00579783        6      -0.00061195       0.00097523       0.00160762
Al       5.72325587       8.27018764      10.00574258        6      -0.00064552       0.00091009       0.00153318
Al       8.58710549       8.27015347      10.00570876        6      -0.00061027       0.00091497       0.00158064
Al      11.45091343       8.27014612      10.00579132        6      -0.00057856       0.00091821       0.00165828
Al      14.31459213       8.27019743      10.00587568        6      -0.00062615       0.00091016       0.00163011
Al       0.00853996       1.65490182      12.39593834        5       0.00012467      -0.00043775       0.00296917
Al       2.87228907       1.65496038      12.39665444        5      -0.00023453      -0.00027490       0.00258255
Al       5.73598706       1.65480557      12.39722256        5      -0.00017423      -0.00069097       0.00307303
Al       8.59992350       1.65468777      12.39677126        5      -0.00016510      -0.00072455       0.00310156
Al       1.44031432       4.13545333      12.39599458        5       0.00000486      -0.00014761       0.00356349
Al       4.30401358       4.13522074      12.39595169        5      -0.00040520       0.00005146       0.00351654
Al       7.16795805       4.13530333      12.39523065        5      -0.00018925      -0.00024983       0.00353778
Al      10.03196833       4.13524232      12.39526466        5       0.00019462       0.00017708       0.00383967
Al       2.87213385       6.61570518      12.39792196        5      -0.00034886       0.00040932       0.00411709
Al       5.73589331       6.61575295      12.39574840        5      -0.00041877       0.00037045       0.00389957
Al       8.60027032       6.61573438      12.39503544        5       0.00009516       0.00046429       0.00437830
Al      11.46411110       6.61566896      12.39745859        5       0.00024571       0.00054057       0.00473217
Al       4.30403065       9.09539118      12.39766764        5      -0.00023021      -0.00014328       0.00382180
Al       7.16819670       9.09567672      12.39628180        5      -0.00015035      -0.00022206       0.00345673
Al      10.03223105       9.09560839      12.39778932        5       0.00014625      -0.00017053       0.00380208
Al      12.89569419       9.09557430      12.39917170        5      -0.00010406      -0.00049361       0.00439328
Al       0.00207706       0.00231777      14.70175836        4       0.00210483      -0.00131341      -0.01706705
Al       2.86584433       0.00224978      14.70253885        4       0.00151194      -0.00121257      -0.01613572
Al       5.72972815       0.00191159      14.70546579        4       0.00148913      -0.00256708      -0.01371071
Al       8.59270440       0.00158527      14.70513136        4       0.00086289      -0.00295613      -0.01466662
Al       1.43379808       2.48172410      14.69915379        4       0.00103409      -0.00236876      -0.01872417
Al       4.29719134       2.48147863      14.69814901        4       0.00042093      -0.00307027      -0.02300088
Al       7.16154487       2.48087973      14.69787842        4       0.00104542      -0.00444558      -0.02205366
Al      10.02630544       2.48123052      14.69683246        4       0.00251620      -0.00243729      -0.02154274
Al       2.86506281       4.96291424      14.70019266        4       0.00028853      -0.00123456      -0.02018822
Al       5.72923546       4.96287066      14.69698012        4       0.00071670      -0.00161988      -0.02346517
Al       8.59411746       4.96265259      14.69586024        4       0.00205892      -0.00151826      -0.02258441
Al      11.45768404       4.96291288      14.70029270        4       0.00291348      -0.00137814      -0.01834750
Al       4.29643760       7.44338631      14.70337139        4      -0.00077290      -0.00014649      -0.01558850
Al       7.16158855       7.44324958      14.69890871        4       0.00164889      -0.00118708      -0.02006577
Al      10.02593721       7.44348619      14.70334471        4       0.00330454      -0.00008426      -0.01391015
Al      12.88842663       7.44359893      14.70770877        4       0.00106718       0.00012592      -0.00807418
Al       1.43026553       0.82310789      17.00606239        3      -0.00031834       0.00048106      -0.00048774
Al       4.29214241       0.82360762      17.00330621        3      -0.00157030      -0.00245648      -0.00352845
Al       7.15757225       0.81697949      17.00905790        3       0.00112971      -0.00652847      -0.01563037
Al      10.02228848       0.82228679      17.00022821        3       0.00230911      -0.00133204      -0.00416549
Al       2.86056638       3.30300502      16.99318831        3      -0.00125138      -0.00168703      -0.00550482
Al       5.72327593       3.30444243      16.98702127        3       0.00086241      -0.00065743      -0.01510178
Al       8.59280621       3.30281421      16.98430943        3       0.00126845      -0.00061793      -0.01467807
Al      11.45474263       3.30299739      16.99544329        3       0.00139105      -0.00114788      -0.00331484
Al       4.29221869       5.78683837      16.99561574        3      -0.00122917       0.00091422      -0.00660921
Al       7.15674798       5.78581587      16.98930512        3       0.00071741      -0.00174583      -0.00668868
Al      10.02260183       5.78592566      16.99413964        3       0.00247397       0.00068750      -0.00492358
Al      12.88720495       5.78681781      17.00580550        3      -0.00014561       0.00042982      -0.00132761
Al       5.72433117       8.26619949      16.99879652        3      -0.00017874       0.00170823      -0.00334801
Al       8.59010227       8.26624819      16.99999026        3       0.00111011       0.00193719      -0.00232175
Al      11.45617115       8.26888155      17.02086953        3      -0.00022689       0.00047278       0.00033760
Al      14.31350133       8.26745556      17.02163391        3      -0.00086058      -0.00052801      -0.00300299
Al      -0.00099771       1.66151711      19.27387942        2       0.00302114      -0.00538697       0.02080636
Al       2.86092741       1.66511973      19.27560583        2      -0.00259069      -0.00667813       0.01986206
Al       5.72843593       1.67684983      19.23419987        2      -0.00217820      -0.00560087       0.00866855
Al       8.59149723       1.67760091      19.23565656        2       0.00257023      -0.00565733       0.00658422
Al       1.43583870       4.11737069      19.26550270        2      -0.00143607       0.00694506       0.01925835
Al       4.29326470       4.13828832      19.24478001        2      -0.00428472      -0.00072786      -0.00086463
Al       7.16824583       4.12020847      19.24134489        2      -0.00183260       0.00611148       0.00284912
Al      10.01752486       4.13796143      19.24562365        2       0.00882764      -0.00238825       0.00580622
Al       2.87268123       6.60531973      19.28323538        2      -0.00057077       0.00300532       0.01952556
Al       5.73234268       6.62019644      19.24852884        2      -0.00073682       0.00288193      -0.00193890
Al       8.58745581       6.61341329      19.24291283        2       0.00245519       0.00409853      -0.00058609
Al      11.45310004       6.60214094      19.27171814        2       0.00100584       0.00463321       0.02392955
Al       4.31006350       9.10526226      19.27726108        2      -0.00372210      -0.00314968       0.02636112
Al       7.16163736       9.09022481      19.26955506        2       0.00127877       0.00541358       0.01954982
Al      10.00693019       9.10519117      19.28707932        2       0.00816972      -0.00479554       0.03336241
Al      12.88750510       9.09799972      19.33286179        2      -0.00114082      -0.00004938       0.00405897
Al      -0.02494914      -0.03885855      21.72028413        1      -0.00265717      -0.00277908       0.00949303
Al       2.87343493      -0.02479365      21.73105103        1      -0.00166394      -0.00169672       0.01015921
Al       5.71403957       0.03547761      21.69062792        1      -0.00196411       0.00141354       0.00621560
Al       8.57287767       0.03013318      21.68971763        1      -0.00134458       0.00168654       0.00673770
Al       1.43974936       2.51820874      21.71099721        1      -0.00032855       0.00290526       0.01257878
Al       4.32699773       2.50172974      21.58942041        1      -0.00461176       0.00116330      -0.01100476
Al       7.17120869       2.50793878      21.60563875        1      -0.00372970       0.00670675      -0.00740674
Al      10.00034403       2.51267504      21.60805301        1       0.00873429      -0.00629792      -0.01981848
Al       2.89807715       4.97220864      21.66769100        1       0.00075508       0.00017693      -0.00749938
Al       5.73805292       4.94566697      21.47866810        1       0.00070124       0.00423380       0.01159957
Al       8.58975197       4.96151021      21.52044550        1      -0.00218331      -0.00210485       0.00901352
Al      11.43651367       4.96473896      21.64772268        1       0.00372031      -0.00179007      -0.01365403
Al       4.32603823       7.41182694      21.70669489        1      -0.00505332       0.00015931      -0.00001794
Al       7.14778797       7.39372899      21.63975024        1      -0.00219277       0.00157467      -0.00845044
Al       9.97376588       7.39490385      21.69410772        1      -0.00406247      -0.00362526       0.00473889
Al      12.89186895       7.39760897      21.74938855        1       0.00027645      -0.00368172       0.01337857
C        6.12237533       3.89523651      24.87261259        0      -0.03237206       0.03541743      -0.01751525
N        7.34383468       3.35959452      24.87511836        0       0.07408392       0.15741077       0.00878057
C        8.16090165       4.46645568      24.85618632        0       0.09592272      -0.07691415       0.01382647
N        7.52705646       5.64315560      24.82720752        0      -0.02257467      -0.12889263       0.01862918
N        6.21476026       5.25645696      24.88858879        0      -0.11647814       0.06264630       0.01554207
H        5.18630457       3.35589480      24.76599119        0      -0.05175476      -0.00839192       0.00479770
H        9.24391389       4.41980960      24.78399681        0       0.10134759      -0.06981223       0.02699263
H        5.50699099       5.88082919      24.50893337        0      -0.05748529       0.05625698       0.00148837
