104
Lattice="11.45512985522207 0.0 0.0 5.727564927611035 9.92043345827187 0.0 0.0 0.0 31.691342951089922" Properties=species:S:1:pos:R:3:tags:I:1:forces:R:3 energy=-420.1310119628906 free_energy=-420.1310119628906 stress="0.0040433695539832115 2.528540790081024e-07 -3.7904828786849976e-07 2.528540790081024e-07 0.004120566416531801 2.5704503059387207e-06 -3.7904828786849976e-07 2.5704503059387207e-06 0.0044097984209656715" pbc="T T F"
Al       1.42413444       0.83598103      10.02735074        6       0.00034824       0.00012495      -0.00718479
Al       4.28817656       0.83525426      10.02879669        6       0.00039169      -0.00002586      -0.00619825
Al       7.15172993       0.83522476      10.03035438        6       0.00041446       0.00001159      -0.00564633
Al      10.01506400       0.83597799      10.02849311        6       0.00038540       0.00027699      -0.00639984
Al       2.85555019       3.31661788      10.02891066        6       0.00023734       0.00004502      -0.00595336
Al       5.71945821       3.31554182      10.02815900        6       0.00039482      -0.00005195      -0.00586052
Al       8.58352055       3.31562718      10.02800824        6       0.00042225       0.00003324      -0.00586050
Al      11.44722887       3.31666142      10.02823271        6       0.00037306      -0.00000048      -0.00617615
Al       4.28707051       5.79750641      10.03221291        6       0.00024681       0.00029670      -0.00432888
Al       7.15128430       5.79711770      10.03044546        6       0.00027751       0.00030572      -0.00498723
Al      10.01576706       5.79731764      10.03188990        6       0.00022803       0.00006745      -0.00485794
Al      12.87904457       5.79766022      10.03418385        6       0.00018610       0.00023205      -0.00424656
Al       5.71928719       8.27740617      10.03114858        6       0.00026715       0.00028251      -0.00545382
Al       8.58400169       8.27712853      10.03054452        6       0.00030777       0.00000801      -0.00603520
Al      11.44785027       8.27712701      10.03454113        6       0.00037191       0.00029197      -0.00425377
Al      14.31062858       8.27744506      10.03438629        6       0.00023209       0.00040217      -0.00430317
Al       0.01747750       1.64861701      12.37077955        5      -0.00009782       0.00237789       0.00319917
Al       2.87648599       1.64787060      12.37198953        5       0.00094072       0.00235635       0.00364643
Al       5.74036915       1.64335406      12.36998090        5       0.00055167       0.00272378       0.00475302
Al       8.60862830       1.64415255      12.37101056        5       0.00059099       0.00269334       0.00472279
Al       1.44698753       4.13448281      12.37711560        5       0.00030155      -0.00000522       0.00245564
Al       4.30584501       4.13376795      12.36877281        5       0.00147901       0.00022549       0.00496036
Al       7.17488259       4.13165422      12.36387276        5       0.00105307       0.00078201       0.00535695
Al      10.04372929       4.13485001      12.37059046        5      -0.00032268       0.00012909       0.00366176
Al       2.87539508       6.61793235      12.38988782        5       0.00152012      -0.00069473       0.00260051
Al       5.73995286       6.62050306      12.37802981        5       0.00197203      -0.00098969       0.00337972
Al       8.61115316       6.62056529      12.38000977        5      -0.00099789      -0.00134672       0.00220984
Al      11.47409311       6.61790623      12.39232066        5      -0.00066857      -0.00075879       0.00131496
Al       4.31002094       9.09231913      12.38393908        5       0.00107405       0.00177717       0.00144184
Al       7.17554961       9.09373127      12.37958419        5       0.00012417       0.00043414       0.00084432
Al      10.03914436       9.09139267      12.38541966        5      -0.00014041       0.00132582       0.00088439
Al      12.90166923       9.08841839      12.39198291        5       0.00081443       0.00232564       0.00228403
Al       0.01742733      -0.00499284      14.65531420        4       0.00082691       0.00041238       0.00231845
Al       2.87746476      -0.00497355      14.65767363        4       0.00123228       0.00033460       0.00306634
Al       5.73727867      -0.01416060      14.66656774        4       0.00122114       0.00120609       0.00324449
Al       8.60877227      -0.01422001      14.66588140        4       0.00086108       0.00120806       0.00303774
Al       1.44541505       2.47082236      14.64856004        4       0.00107119       0.00043533       0.00160704
Al       4.30393693       2.46672927      14.64235010        4       0.00112313       0.00019557       0.00330763
Al       7.17349569       2.46074635      14.63382352        4       0.00110689       0.00113092       0.00267478
Al      10.04521896       2.46838390      14.64263828        4       0.00043429       0.00025512       0.00213503
Al       2.87195096       4.95673289      14.65440023        4       0.00129716      -0.00041517       0.00298330
Al       5.73758270       4.95700429      14.63132478        4       0.00101685      -0.00004900       0.00380922
Al       8.61165416       4.95868752      14.63433193        4       0.00104544       0.00011001       0.00230028
Al      11.47675602       4.95741469      14.65785897        4       0.00055491       0.00005254       0.00212571
Al       4.30174449       7.44373227      14.66456510        4       0.00258270       0.00025705       0.00313062
Al       7.17540276       7.44186489      14.65459402        4       0.00095764       0.00122222       0.00186264
Al      10.04615440       7.44407628      14.67075551        4       0.00008612       0.00035443       0.00128306
Al      12.90024501       7.44076691      14.68790625        4       0.00099856       0.00021439       0.00154125
Al       1.43518619       0.81329019      16.98410425        3       0.00211554      -0.00020962      -0.00065751
Al       4.28520460       0.80055215      16.98469142        3       0.00151695       0.00075313      -0.00010749
Al       7.16370087       0.79008926      16.95988444        3       0.00060686       0.00076129       0.00047584
Al      10.04523743       0.80326597      16.97644781        3      -0.00024804      -0.00001863      -0.00084312
Al       2.85631792       3.28175475      16.95880992        3       0.00397786       0.00118551      -0.00199622
Al       5.73020238       3.28646972      16.91684881        3       0.00011187       0.00032439       0.00028668
Al       8.60889911       3.29053069      16.91600517        3       0.00031429      -0.00074452      -0.00145569
Al      11.47462692       3.28465374      16.96011283        3       0.00054355       0.00023965      -0.00227494
Al       4.28787529       5.78825794      16.94149500        3       0.00107827       0.00080560       0.00072671
Al       7.16677996       5.78399357      16.92022501        3       0.00076949       0.00162763       0.00054998
Al      10.04567713       5.79002723      16.94950400        3       0.00010613       0.00125703      -0.00053226
Al      12.89435386       5.78051092      16.99613051        3       0.00220472       0.00239887      -0.00391032
Al       5.73138932       8.28048424      16.97134379        3       0.00069984      -0.00052875       0.00039123
Al       8.60425466       8.28040299      16.98041872        3       0.00041081       0.00021867       0.00029622
Al      11.45917942       8.26616202      17.02656090        3       0.00091706       0.00082121      -0.00090137
Al      14.32157379       8.25864367      17.02008846        3       0.00062497       0.00077064      -0.00020328
Al       0.02745813       1.63752744      19.28142869        2      -0.00032216      -0.00044189      -0.00136977
Al       2.84493952       1.64316860      19.29003048        2       0.00172813      -0.00030680      -0.00005279
Al       5.72718477       1.65296421      19.20276044        2       0.00132749      -0.00218303       0.00161093
Al       8.60367768       1.65275359      19.18462053        2       0.00123370      -0.00215251       0.00178958
Al       1.44291818       4.12181197      19.25580256        2       0.00076662      -0.00311164      -0.01114901
Al       4.28923896       4.13499238      19.18198262        2       0.00157475      -0.00434578       0.00778831
Al       7.16944568       4.13534041      19.16083746        2       0.00406648      -0.00495592       0.00150823
Al      10.04246966       4.13563529      19.17372206        2       0.00048079      -0.00321911      -0.00573836
Al       2.87598458       6.62255213      19.31046549        2      -0.00092544       0.00084368      -0.00398243
Al       5.73459148       6.62712361      19.20081456        2      -0.00163217       0.00112742       0.00383648
Al       8.60350850       6.61997035      19.19990832        2       0.00127395      -0.00081201      -0.00254621
Al      11.46815310       6.62257519      19.29093959        2       0.00253041      -0.00053874      -0.00501171
Al       4.30367016       9.09563511      19.34152671        2       0.00205424       0.00042203       0.00210602
Al       7.17161363       9.10741587      19.29328386        2       0.00025739      -0.00037813      -0.00652700
Al      10.02634867       9.09943333      19.38826311        2       0.00048482       0.00066716       0.00059145
Al      12.89195702       9.09653874      19.36746047        2       0.00132422      -0.00091374       0.00459384
Al      -0.05970499      -0.08455113      21.83701300        1      -0.00318650      -0.00146839       0.00451001
Al       2.86197782      -0.04717190      21.85617297        1      -0.00258877       0.00234353       0.00386894
Al       5.69211124       0.05919506      21.76263354        1      -0.00149597      -0.00266475       0.00538820
Al       8.54503226       0.05879640      21.76171277        1      -0.00245804      -0.00099774       0.00590544
Al       1.44425417       2.56297629      21.85570009        1      -0.00064111       0.00236499       0.00915390
Al       4.31846419       2.51084928      21.51206632        1      -0.00357719      -0.00604235       0.01463142
Al       7.16294731       2.54492093      21.53394064        1      -0.00035570      -0.00629792      -0.00193231
Al      10.01225643       2.49632135      21.52738007        1       0.00326826      -0.00122692       0.00122992
Al       2.92829074       4.96447034      21.58747542        1      -0.00473561      -0.00143378      -0.00299537
Al       5.75371461       4.95430088      21.43220392        1      -0.00266337      -0.00104312       0.01213302
Al       8.57730816       4.94154792      21.49841425        1       0.00168647      -0.00880254       0.00624496
Al      11.42631506       4.96010933      21.56296533        1       0.00277256      -0.00155559       0.00465665
Al       4.29941265       7.40166991      21.72606153        1      -0.00430569       0.00248573      -0.00316312
Al       7.12882188       7.38084376      21.55290613        1       0.00138995       0.00315699      -0.00002091
Al       9.92357311       7.34537055      21.73514189        1      -0.00081029      -0.00191110       0.00038199
Al      12.89260762       7.33811313      21.91619603        1      -0.00416706      -0.00153324       0.00752785
C        6.02497956       4.00672220      24.90363968        0      -0.02144949       0.03740336       0.00330284
N        7.19566151       3.36989068      25.00374772        0      -0.03424730       0.01341272      -0.01420192
C        8.10843207       4.39218625      25.07661504        0      -0.04294280      -0.04191922       0.01149826
N        7.57487916       5.61872128      25.02628339        0      -0.00100038      -0.01631083       0.00587488
N        6.23328098       5.35205388      24.95784337        0       0.07040035       0.01674161      -0.00288184
H        5.04450561       3.56187006      24.75015777        0       0.02479032      -0.02190685      -0.01775416
H        9.18266135       4.22195378      25.12097999        0       0.01266075       0.01926796       0.00238353
H        5.60690424       6.08260221      24.62995231        0      -0.04801730       0.00598753      -0.03343740
