104
Lattice="11.45512985522207 0.0 0.0 5.727564927611035 9.92043345827187 0.0 0.0 0.0 31.691342951089922" Properties=species:S:1:pos:R:3:tags:I:1:forces:R:3 energy=-419.7643737792969 free_energy=-419.7643737792969 stress="0.007242514751851559 6.309710443019867e-07 -4.7497451305389404e-08 6.309710443019867e-07 0.007294651120901108 1.5692785382270813e-06 -4.7497451305389404e-08 1.5692785382270813e-06 0.007453095633536577" pbc="T T F"
Al       1.60940523       0.85324456       9.93828249        6      -0.00022808      -0.00048482      -0.00065281
Al       4.47446900       0.85250940       9.95404296        6      -0.00016931      -0.00035081      -0.00053004
Al       7.33480747       0.85171228       9.95785691        6      -0.00027157      -0.00030438      -0.00073250
Al      10.19786257       0.85261587       9.94358577        6      -0.00030261      -0.00042478      -0.00084143
Al       3.03924460       3.33463245       9.93059122        6      -0.00013291      -0.00047055      -0.00071439
Al       5.90380696       3.33533224       9.94084196        6      -0.00024116      -0.00039706      -0.00059540
Al       8.76601072       3.33493707       9.93037420        6      -0.00039753      -0.00034839      -0.00075464
Al      11.62981683       3.33484930       9.92283815        6      -0.00034778      -0.00038137      -0.00087249
Al       4.46848324       5.81559345       9.95250773        6      -0.00014442      -0.00042311      -0.00076401
Al       7.33429053       5.81744528       9.95102587        6      -0.00027444      -0.00047800      -0.00070429
Al      10.19776497       5.81654665       9.95061772        6      -0.00029248      -0.00034314      -0.00076241
Al      13.06005543       5.81546999       9.94983991        6      -0.00023665      -0.00033337      -0.00077728
Al       5.90262238       8.29431997       9.96175539        6      -0.00027545      -0.00056021      -0.00116957
Al       8.76877066       8.29582151       9.96836825        6      -0.00022939      -0.00062501      -0.00098777
Al      11.63040862       8.29374107       9.97770873        6      -0.00026229      -0.00042885      -0.00082194
Al      14.49053327       8.29314638       9.97615303        6      -0.00022663      -0.00044189      -0.00115760
Al       0.19376656       1.64424757      12.33419541        5      -0.00125779      -0.00258523       0.00037653
Al       3.05585076       1.64403419      12.34752563        5      -0.00039928      -0.00406097      -0.00439339
Al       5.91983652       1.64023234      12.35718751        5      -0.00049203      -0.00044126       0.00123325
Al       8.78186852       1.64472428      12.34065182        5      -0.00121643      -0.00251741       0.00371727
Al       1.62322540       4.11721242      12.33080019        5      -0.00182567       0.00066414      -0.00082879
Al       4.48565752       4.11862675      12.33689226        5       0.00052043      -0.00040459       0.00250021
Al       7.35364381       4.12124812      12.33685802        5      -0.00119124      -0.00144581       0.00390233
Al      10.21486730       4.11736935      12.32450080        5      -0.00031431       0.00079069       0.00428197
Al       3.05168287       6.60287896      12.35844148        5      -0.00058258      -0.00073397       0.00197483
Al       5.92200376       6.60207394      12.35434820        5      -0.00159627      -0.00011753      -0.00390825
Al       8.78784182       6.60228624      12.36114074        5       0.00149714       0.00083794      -0.00265484
Al      11.64930556       6.60346691      12.36443659        5      -0.00146566      -0.00051601       0.00287176
Al       4.48582306       9.08748795      12.35455627        5      -0.00059462      -0.00172854       0.00048832
Al       7.35515561       9.08672149      12.35779577        5      -0.00056473      -0.00140571      -0.00513083
Al      10.22077996       9.08526586      12.37506218        5      -0.00186465      -0.00116532       0.00136931
Al      13.07519938       9.08363850      12.37756110        5       0.00052221      -0.00012633       0.00233799
Al       0.17712295      -0.04260062      14.64377268        4       0.00127490       0.00090148       0.00690364
Al       3.04528245      -0.04377872      14.66766400        4      -0.00039749      -0.00019821       0.00048132
Al       5.90864863      -0.04703453      14.70488453        4      -0.00078739      -0.00051131      -0.00132032
Al       8.77347364      -0.03898909      14.67106411        4      -0.00076619      -0.00050259       0.00026877
Al       1.61087883       2.43696594      14.64434710        4      -0.00211470      -0.00345507      -0.00235597
Al       4.46689798       2.42262068      14.64826518        4       0.00005379       0.00027509       0.00080834
Al       7.34341939       2.43230979      14.65389048        4      -0.00126338      -0.00165185      -0.00130756
Al      10.20415432       2.43091135      14.63913369        4      -0.00066591      -0.00072462      -0.00020639
Al       3.02741419       4.90390157      14.62984920        4       0.00067731       0.00066787       0.00326711
Al       5.90786135       4.91396083      14.63673053        4      -0.00424288      -0.00469689      -0.00491741
Al       8.77795980       4.91659704      14.64281624        4      -0.00057841      -0.00109649      -0.00011750
Al      11.62408697       4.90755348      14.62929237        4       0.00282840       0.00260792       0.00558692
Al       4.47110875       7.40316326      14.64887892        4      -0.00176571      -0.00216868      -0.00064156
Al       7.35155163       7.40467077      14.65090606        4      -0.00140383      -0.00101275       0.00135034
Al      10.20914620       7.40454657      14.69003527        4       0.00010075      -0.00036948       0.00024019
Al      13.05727706       7.40223889      14.68805863        4      -0.00046639      -0.00154911      -0.00029738
Al       1.57179457       0.73328357      16.99204991        3      -0.02690052      -0.02097772      -0.00745565
Al       4.41677980       0.68980547      17.02023271        3       0.00395839       0.00479520       0.00461104
Al       7.29330420       0.69899081      17.02107474        3      -0.00136955       0.00264668       0.00172977
Al      10.14476006       0.72152125      17.00357149        3       0.02059432       0.00172306      -0.00765899
Al       2.96871280       3.17404381      16.98002041        3       0.00968239       0.00658870      -0.00711635
Al       5.85725662       3.17021615      16.94369787        3      -0.00281648      -0.00117761       0.00320430
Al       8.73811479       3.18107236      16.96422625        3      -0.00051532      -0.00001424       0.00082408
Al      11.58512148       3.19198568      16.94689166        3      -0.00157600       0.00030770       0.02262456
Al       4.40869227       5.66632079      16.92658968        3      -0.00095401      -0.00230954       0.00037045
Al       7.28846907       5.66962958      16.93546843        3       0.01078756       0.00285812       0.00016361
Al      10.16894373       5.67282055      16.98065753        3      -0.00118684       0.00001692       0.00041569
Al      13.00614066       5.67470485      16.99399619        3      -0.01070397      -0.01304715      -0.02625035
Al       5.86090661       8.15437329      16.95541731        3       0.00732980       0.01807175      -0.00311328
Al       8.74728998       8.17583507      17.00633299        3      -0.00168265      -0.00110379       0.00112755
Al      11.58743438       8.16165092      17.08333610        3      -0.00026352      -0.00014805       0.00034593
Al      14.44036120       8.16745810      16.99995283        3      -0.00463177      -0.00363212      -0.00793613
Al       0.08682711       1.53972476      19.33754438        2      -0.00247356      -0.00961283       0.00276297
Al       2.93886548       1.48044622      19.33229625        2      -0.00427638      -0.00135533      -0.00639622
Al       5.78869844       1.48027592      19.31062480        2       0.00190635      -0.00218224       0.00500882
Al       8.68367013       1.49432379      19.35211979        2      -0.00310361      -0.00395159      -0.00408850
Al       1.48525829       3.94430557      19.31142601        2       0.00103107       0.00140728       0.00103032
Al       4.35966351       3.96237988      19.24028410        2      -0.00431241       0.00307568      -0.00643501
Al       7.23952115       3.97745939      19.20877947        2       0.00137402       0.00008564      -0.00306077
Al      10.12892306       3.95541446      19.28629674        2      -0.00077536       0.00341214      -0.00183680
Al       2.91050829       6.45475239      19.23923891        2       0.00553001       0.00180848       0.01243906
Al       5.79386799       6.45536136      19.18697142        2       0.00040598       0.00125833       0.00120189
Al       8.68744152       6.47946689      19.22804777        2      -0.00170285      -0.00440809       0.00692995
Al      11.51874820       6.41742369      19.35546361        2       0.00095885       0.00420388       0.00423443
Al       4.38790714       8.95252892      19.25544904        2      -0.00043211      -0.00089865      -0.00069021
Al       7.23871619       8.98230805      19.27038038        2       0.00041467      -0.00005903      -0.00370993
Al      10.11291829       8.92321784      19.54395278        2       0.00038642       0.00066272      -0.00194690
Al      12.97425733       8.96455014      19.42421656        2       0.00400747      -0.00232344       0.00639398
Al      -0.08829251      -0.11085723      21.63853624        1      -0.00233844      -0.00317040       0.00141732
Al       2.62756181      -0.22981307      22.05407751        1       0.00020852       0.00208662      -0.00214474
Al       5.64414342      -0.16917611      22.11513843        1      -0.00183685       0.00206575      -0.00042421
Al       8.56910472      -0.30473625      22.10254507        1      -0.00394475       0.00215273      -0.01547331
Al       1.41538110       2.34819192      22.08736892        1       0.00080726       0.00157333      -0.00869285
Al       4.26310505       2.32832504      21.61918288        1      -0.00053992      -0.00056747       0.00278443
Al       7.10141342       2.29001912      21.60603647        1       0.00306284       0.00323767       0.00294182
Al       9.88639296       2.29077779      21.81622590        1       0.00197336       0.00198403       0.00195144
Al       2.84459958       4.79333587      21.54888858        1       0.00470627       0.00733191       0.00656997
Al       5.71568374       4.77762547      21.50510881        1       0.00090478       0.00162617       0.01061657
Al       8.51689326       4.76521607      21.54735990        1       0.00375742       0.00267694      -0.00010376
Al      11.40799965       4.88163261      22.09428065        1       0.00155278      -0.00484070      -0.01444276
Al       4.28482514       7.24581414      21.52072989        1      -0.00751147       0.00668652      -0.01294769
Al       7.04102206       7.25329952      21.51985735        1       0.00459224       0.00031754       0.00148265
Al       9.76069536       7.22566572      21.93438712        1       0.00019171       0.00064051      -0.00539912
Al      12.80866380       7.26286217      21.67677384        1       0.00354162       0.00871489      -0.00159312
C        4.56632422       5.64591900      24.78020659        0      -0.08353234       0.00331645      -0.01110029
N        5.02524125       4.39407612      24.83836199        0      -0.00670528      -0.02574620       0.00242734
C        6.38211277       4.55313141      24.93824552        0      -0.01027502      -0.03479742       0.01182120
N        6.79669836       5.82450942      24.92299143        0      -0.00001925       0.04242204      -0.00067789
N        5.61455734       6.51516711      24.86145497        0      -0.02053055       0.02835394      -0.00850770
H        3.53097188       5.94237984      24.60644955        0       0.12286558       0.01288594       0.03189526
H        7.08454163       3.72070167      24.95548920        0       0.01176551      -0.00094065       0.00589128
H        5.60339101       7.46160203      24.48101408        0       0.00299177      -0.00849391       0.01093977
