104
Lattice="11.45512985522207 0.0 0.0 5.727564927611035 9.92043345827187 0.0 0.0 0.0 31.691342951089922" Properties=species:S:1:pos:R:3:tags:I:1:forces:R:3 energy=-419.81219482421875 free_energy=-419.81219482421875 stress="0.005922690499573946 9.192153811454773e-07 -4.791654646396637e-07 9.192153811454773e-07 0.005980396177619696 4.0996819734573364e-06 -4.791654646396637e-07 4.0996819734573364e-06 0.0064056809060275555" pbc="T T F"
Al       1.43043989       0.82736327       9.99303705        6      -0.00082246       0.00059565       0.00992452
Al       4.29421789       0.82737569       9.99303273        6      -0.00082145       0.00058775       0.00991496
Al       7.15799926       0.82737049       9.99303536        6      -0.00082239       0.00059270       0.00992746
Al      10.02178030       0.82737377       9.99304313        6      -0.00081985       0.00059054       0.00996201
Al       2.86232839       3.30747751       9.99301123        6      -0.00081769       0.00058435       0.00991584
Al       5.72610934       3.30747567       9.99301935        6      -0.00082257       0.00057709       0.00988289
Al       8.58989191       3.30747765       9.99302577        6      -0.00082429       0.00057597       0.00986529
Al      11.45365850       3.30747816       9.99302404        6      -0.00082119       0.00057768       0.00991921
Al       4.29421210       5.78759301       9.99302648        6      -0.00083192       0.00059356       0.00993248
Al       7.15799960       5.78759581       9.99303013        6      -0.00083315       0.00059389       0.00990525
Al      10.02178335       5.78759011       9.99303254        6      -0.00082388       0.00058357       0.00987986
Al      12.88554282       5.78759190       9.99304206        6      -0.00083416       0.00059058       0.00993739
Al       5.72609734       8.26770841       9.99303310        6      -0.00083476       0.00059583       0.00993702
Al       8.58989138       8.26770580       9.99303740        6      -0.00081665       0.00058197       0.00988606
Al      11.45366962       8.26769830       9.99303179        6      -0.00081825       0.00059069       0.00991341
Al      14.31744141       8.26771064       9.99305461        6      -0.00083833       0.00059620       0.00996836
Al       0.00240201       1.65523238      12.40371157        5       0.00152491      -0.00106198      -0.06589219
Al       2.86607304       1.65532640      12.40347902        5       0.00200715      -0.00162234      -0.06359882
Al       5.72994931       1.65511590      12.40353182        5       0.00186864      -0.00097377      -0.06297675
Al       8.59375346       1.65515157      12.40338502        5       0.00184352      -0.00101260      -0.06354156
Al       1.43425942       4.13535390      12.40358713        5       0.00188615      -0.00074322      -0.06337765
Al       4.29819582       4.13545179      12.40346582        5       0.00156486      -0.00094210      -0.06072707
Al       7.16193501       4.13548962      12.40312112        5       0.00155032      -0.00102334      -0.05862867
Al      10.02542280       4.13537219      12.40333811        5       0.00203801      -0.00104708      -0.06146872
Al       2.86609036       6.61548411      12.40378325        5       0.00204822      -0.00118719      -0.06521612
Al       5.72991548       6.61558702      12.40355685        5       0.00194008      -0.00107171      -0.06199057
Al       8.59397599       6.61553863      12.40348078        5       0.00133646      -0.00112604      -0.06172355
Al      11.45738835       6.61557180      12.40339115        5       0.00206670      -0.00135336      -0.06414033
Al       4.29796907       9.09539697      12.40373370        5       0.00184449      -0.00092604      -0.06681912
Al       7.16175899       9.09544307      12.40319624        5       0.00225650      -0.00079874      -0.06389996
Al      10.02583408       9.09529163      12.40355895        5       0.00139631      -0.00021062      -0.06382412
Al      12.88936736       9.09556049      12.40346812        5       0.00183790      -0.00085263      -0.06586818
Al      -0.00121958       0.00072236      14.67333728        4       0.00248989       0.00022173       0.03293429
Al       2.86255315       0.00071578      14.67335581        4       0.00225340       0.00024077       0.03185334
Al       5.72633585       0.00071579      14.67335029        4       0.00228374       0.00009059       0.03359722
Al       8.59011976       0.00070436      14.67337143        4       0.00231210       0.00004151       0.03426134
Al       1.43065721       2.48082935      14.67329809        4       0.00214574       0.00026704       0.03138464
Al       4.29443538       2.48082152      14.67323747        4       0.00184863       0.00018960       0.02857224
Al       7.15824160       2.48080572      14.67320822        4       0.00208101       0.00023268       0.02783119
Al      10.02203183       2.48080801      14.67327371        4       0.00228564       0.00025445       0.02981390
Al       2.86255237       4.96093214      14.67327556        4       0.00199981       0.00025173       0.03034563
Al       5.72633338       4.96094991      14.67316084        4       0.00172688       0.00041852       0.02652980
Al       8.59012789       4.96094565      14.67318753        4       0.00180048       0.00032652       0.02611520
Al      11.45390966       4.96092390      14.67332052        4       0.00202620       0.00014060       0.03007727
Al       4.29443773       7.44104821      14.67330494        4       0.00211876      -0.00001267       0.03180003
Al       7.15822870       7.44105432      14.67326972        4       0.00209797       0.00020835       0.02888320
Al      10.02200724       7.44105802      14.67331532        4       0.00209909       0.00017101       0.02979843
Al      12.88579204       7.44104168      14.67337227        4       0.00234064       0.00012212       0.03418586
Al       1.43063154       0.82744343      17.01169421        3      -0.00058203       0.00054075       0.01197939
Al       4.29440964       0.82743940      17.01171911        3      -0.00069453       0.00016784       0.01130283
Al       7.15818533       0.82743845      17.01172915        3      -0.00054178       0.00027315       0.01150775
Al      10.02196589       0.82744170      17.01170270        3      -0.00045816       0.00034280       0.01167147
Al       2.86253612       3.30756437      17.01168044        3      -0.00097823       0.00008124       0.01141296
Al       5.72631689       3.30756526      17.01170212        3      -0.00067310      -0.00031936       0.01008599
Al       8.59006681       3.30756380      17.01170987        3       0.00029050      -0.00032313       0.01058260
Al      11.45385244       3.30755893      17.01172425        3      -0.00028372       0.00004721       0.01145047
Al       4.29442164       5.78764945      17.01169683        3      -0.00067567       0.00052011       0.01068353
Al       7.15820094       5.78764034      17.01170792        3      -0.00046743       0.00064737       0.01041726
Al      10.02196556       5.78765179      17.01173281        3      -0.00040457       0.00030285       0.01077465
Al      12.88574566       5.78765532      17.01172056        3      -0.00036783       0.00069067       0.01165008
Al       5.72629744       8.26773993      17.01168322        3      -0.00063535       0.00066302       0.01115589
Al       8.59008140       8.26774898      17.01171408        3      -0.00056075       0.00059725       0.01101499
Al      11.45385796       8.26776134      17.01172360        3      -0.00038076       0.00084495       0.01189635
Al      14.31763789       8.26776461      17.01173097        3      -0.00049706       0.00089854       0.01214794
Al      -0.00072912       1.65582518      19.31664213        2      -0.00081411       0.00240308      -0.00710021
Al       2.86526310       1.65793555      19.31848516        2      -0.00100994       0.00312475      -0.00598862
Al       5.72809695       1.66247257      19.31384204        2       0.00020882       0.00463008      -0.01071711
Al       8.59096524       1.66169706      19.31506392        2      -0.00055769       0.00499360      -0.01088335
Al       1.43319604       4.12860866      19.31816585        2       0.00042983      -0.00352353      -0.00903099
Al       4.29953804       4.13676014      19.32020763        2       0.00143152       0.00167708      -0.01204813
Al       7.15851614       4.13557811      19.32418370        2       0.00104970      -0.00031455      -0.01519554
Al      10.01755272       4.13664572      19.31726570        2      -0.00284566       0.00177952      -0.01245925
Al       2.86727086       6.60957178      19.32366020        2       0.00086912      -0.00097635      -0.00635061
Al       5.72863718       6.60930679      19.32146592        2       0.00172524      -0.00027092      -0.01238653
Al       8.58737785       6.60785725      19.31882799        2      -0.00122157      -0.00120724      -0.01198058
Al      11.45300811       6.60788131      19.31759950        2      -0.00071137      -0.00203781      -0.00839928
Al       4.30031045       9.09620202      19.31950953        2       0.00220801       0.00304307      -0.00585042
Al       7.15930725       9.08792785      19.31630746        2      -0.00018478       0.00034653      -0.00609598
Al      10.01698651       9.09710543      19.31547292        2      -0.00383434       0.00355759      -0.00763946
Al      12.88738661       9.09469262      19.33701737        2       0.00004332       0.00113785       0.00660418
Al      -0.00843057      -0.01250539      21.68445280        1      -0.00314948      -0.00495246       0.01463619
Al       2.86709017      -0.00726567      21.68750854        1       0.00142064      -0.00303972       0.01568425
Al       5.72284527       0.01197537      21.67949498        1      -0.00197265       0.00479013       0.00938252
Al       8.58672629       0.00787707      21.68007944        1      -0.00302393       0.00513647       0.00860820
Al       1.43415965       2.49012553      21.67959709        1       0.00110720       0.00684601       0.01219266
Al       4.31549381       2.48960669      21.64875007        1       0.00501355       0.00319645      -0.00171800
Al       7.16322096       2.48517017      21.64851928        1       0.00432907       0.00725581       0.00045627
Al      10.01051737       2.49332257      21.67191403        1      -0.00777617       0.01008856      -0.01057060
Al       2.88167539       4.96593663      21.67850300        1       0.00344037       0.00190466       0.00861629
Al       5.72196751       4.95661278      21.56603712        1       0.00499060      -0.00377306      -0.02977158
Al       8.59034044       4.96750533      21.59779058        1       0.00104888       0.00067711      -0.02434591
Al      11.44539727       4.96439719      21.67677450        1      -0.00725065      -0.00096811       0.00155261
Al       4.31460247       7.42201030      21.68307424        1       0.00268948      -0.00188629       0.01444066
Al       7.15620453       7.41999087      21.65514992        1      -0.00142220      -0.00717379      -0.00072810
Al      10.00680250       7.42332581      21.67739242        1      -0.00773652      -0.00693724       0.00379286
Al      12.88775081       7.43053302      21.69016880        1       0.00056313      -0.00716012       0.01897234
C        6.15603213       3.86652149      24.81686366        0      -0.08472522      -0.17487521      -0.06906962
N        7.40248061       3.38928378      24.78452986        0       0.04901210      -0.23134196       0.11348487
C        8.18530084       4.51039133      24.74559955        0       0.03353780       0.08462713      -0.03719543
N        7.48439989       5.64788699      24.65199492        0       0.15441906       0.18259487       0.08244307
N        6.19870995       5.21540042      24.73039034        0      -0.00398344       0.30705711       0.08016290
H        5.24370447       3.28362987      24.72765238        0      -0.02623215      -0.02669084       0.05922561
H        9.27506348       4.52161225      24.66755395        0      -0.07994839      -0.10935350       0.06342613
H        5.44918122       5.88193180      24.56738174        0      -0.07294534      -0.05697761      -0.01085384
