104
Lattice="11.45512985522207 0.0 0.0 5.727564927611035 9.92043345827187 0.0 0.0 0.0 31.691342951089922" Properties=species:S:1:pos:R:3:tags:I:1:forces:R:3 energy=-420.0439453125 free_energy=-420.0439453125 stress="0.008741719648241997 -1.210719347000122e-07 3.259629011154175e-09 -1.210719347000122e-07 0.008792513981461525 2.359040081501007e-06 3.259629011154175e-09 2.359040081501007e-06 0.009036311879754066" pbc="T T F"
Al       1.53040958       0.85512834       9.88084468        6       0.00036948      -0.00028087       0.00163596
Al       4.39522221       0.85659730       9.90171004        6       0.00040798      -0.00037224       0.00138552
Al       7.25517827       0.85615633       9.91708010        6       0.00040120      -0.00036997       0.00113455
Al      10.11816087       0.85461718       9.89191362        6       0.00040462      -0.00022530       0.00152437
Al       2.96076081       3.33982489       9.88613625        6       0.00036397      -0.00038130       0.00147372
Al       5.82105169       3.34182007       9.89817705        6       0.00049917      -0.00046093       0.00141954
Al       8.68346587       3.34140638       9.88446434        6       0.00044487      -0.00040336       0.00153685
Al      11.54873265       3.34068660       9.87584572        6       0.00044353      -0.00044282       0.00155464
Al       4.38708344       5.81741501       9.92225491        6       0.00052417      -0.00014526       0.00139936
Al       7.25073295       5.81809728       9.91003009        6       0.00050859      -0.00016080       0.00158136
Al      10.11440071       5.81874450       9.90956600        6       0.00049719      -0.00028310       0.00154231
Al      12.97997544       5.81759283       9.91335280        6       0.00046376      -0.00021770       0.00144413
Al       5.82059575       8.29364582       9.91636564        6       0.00048922      -0.00014396       0.00152891
Al       8.68681559       8.29350103       9.91468479        6       0.00045191      -0.00011455       0.00152696
Al      11.54899683       8.29131682       9.93766814        6       0.00053319       0.00000988       0.00118579
Al      14.41329831       8.29228039       9.94328216        6       0.00036020      -0.00005601       0.00127311
Al       0.14503429       1.67129198      12.30738743        5      -0.00025676      -0.00063813      -0.00034148
Al       3.00857250       1.67365388      12.31469851        5      -0.00071538      -0.00143821      -0.00032467
Al       5.87105529       1.67225435      12.32709199        5      -0.00024945      -0.00089041       0.00178535
Al       8.73068622       1.66927406      12.31769737        5       0.00136252      -0.00016069       0.00243475
Al       1.57772364       4.15133282      12.31066448        5      -0.00137389      -0.00080694       0.00192581
Al       4.44283092       4.15431887      12.32190126        5      -0.00137195      -0.00143124       0.00185705
Al       7.30459348       4.15467512      12.31980552        5       0.00044718      -0.00093725       0.00297504
Al      10.16430156       4.15271551      12.30958755        5       0.00174725      -0.00117173       0.00347572
Al       3.00650417       6.63709079      12.35497140        5      -0.00019013      -0.00225186      -0.00153940
Al       5.87267930       6.64039414      12.34050145        5       0.00008098      -0.00179428       0.00223196
Al       8.73927846       6.63798085      12.34609023        5      -0.00045195      -0.00082073      -0.00078922
Al      11.60173123       6.64031085      12.34816135        5      -0.00094549      -0.00359314       0.00208593
Al       4.43680838       9.11832703      12.34753682        5       0.00074165      -0.00140568      -0.00025495
Al       7.30375724       9.11773560      12.33297404        5      -0.00033047      -0.00148241      -0.00066943
Al      10.16963125       9.11587261      12.34248945        5      -0.00113603      -0.00099382       0.00391865
Al      13.02891196       9.11425161      12.35995529        5       0.00055331      -0.00045560       0.00261195
Al       0.15125963      -0.00295108      14.64960528        4       0.00001181      -0.00004177       0.00163717
Al       3.01288849      -0.00123822      14.64083398        4      -0.00053550      -0.00068173       0.00275261
Al       5.87041514      -0.00236583      14.66984167        4       0.00059702      -0.00041744       0.00189191
Al       8.73772335      -0.00735742      14.67464255        4       0.00030535       0.00010665       0.00174306
Al       1.57979817       2.46916981      14.62249120        4      -0.00037269      -0.00045616       0.00154184
Al       4.43887274       2.46596690      14.62875796        4       0.00022821       0.00002761       0.00161535
Al       7.30896731       2.47058680      14.62918731        4       0.00014287      -0.00080593       0.00151119
Al      10.17456079       2.45660217      14.60967124        4      -0.00036006       0.00092816       0.00320364
Al       3.00239713       4.94583880      14.63279126        4       0.00025676       0.00010717       0.00143746
Al       5.87864497       4.96023645      14.63457193        4      -0.00124492      -0.00201161      -0.00098130
Al       8.75126061       4.95547623      14.63598201        4      -0.00003324      -0.00023153       0.00129373
Al      11.60386762       4.95085368      14.62109365        4      -0.00031075      -0.00015864       0.00366685
Al       4.43938219       7.44763651      14.66591863        4       0.00011250      -0.00058775       0.00116739
Al       7.31140345       7.45055866      14.65659989        4       0.00021316      -0.00109492       0.00105084
Al      10.18470524       7.44873474      14.67751625        4      -0.00039240      -0.00075164       0.00124156
Al      13.03325999       7.44352436      14.68800802        4      -0.00065411      -0.00055193       0.00024882
Al       1.53323729       0.74675992      16.99325891        3       0.00353646       0.00178384       0.00219475
Al       4.39211424       0.73145574      16.99758269        3      -0.00009942       0.00067044       0.00229803
Al       7.26232241       0.73218963      17.02076708        3       0.00149239      -0.00051761      -0.00106420
Al      10.14667790       0.74962684      17.01547656        3      -0.00084473      -0.00094214       0.00099880
Al       2.96106247       3.20903590      16.95553586        3       0.00015275      -0.00001103       0.00158917
Al       5.83388785       3.20940205      16.93461404        3       0.00018919       0.00012216       0.00165874
Al       8.72103835       3.21162364      16.94303282        3      -0.00380484      -0.00131650      -0.00095060
Al      11.55852385       3.22038579      16.94901448        3       0.00496319      -0.00026928       0.00068663
Al       4.38991499       5.71011891      16.93520882        3       0.00065747       0.00072428       0.00203976
Al       7.28093198       5.71859309      16.94897751        3      -0.00014276       0.00057776      -0.00384814
Al      10.14905608       5.72107311      16.97411619        3       0.00167771       0.00234178      -0.00016959
Al      12.99538154       5.72270081      16.96911309        3      -0.00515880      -0.00501544       0.00514303
Al       5.84329121       8.21922630      16.99245628        3      -0.00028847      -0.00140050       0.00102988
Al       8.71411163       8.21175855      16.99738333        3       0.00027416      -0.00003846       0.00218908
Al      11.57342276       8.20264041      17.07049337        3       0.00041111       0.00010770       0.00174527
Al      14.42238846       8.20793952      17.03125861        3       0.00088575       0.00087812       0.00198014
Al       0.09021512       1.54154033      19.36821618        2      -0.00458342      -0.00189519      -0.00262896
Al       2.89732546       1.52279781      19.35647175        2      -0.00260211      -0.00141630      -0.00626112
Al       5.75604469       1.52416358      19.28756216        2      -0.00102401      -0.00094378      -0.00028942
Al       8.66168952       1.52330164      19.31208643        2       0.00108132      -0.00121190      -0.00506906
Al       1.48197034       4.00572270      19.25764492        2      -0.00059647      -0.00219212       0.00058849
Al       4.32986152       4.01341467      19.22675408        2       0.00058245      -0.00131442      -0.00564801
Al       7.23135664       4.00206835      19.19124924        2      -0.00053777       0.00460887      -0.00288864
Al      10.11798894       4.02113445      19.22781834        2       0.00182450      -0.00046239      -0.00151049
Al       2.90561552       6.51143612      19.28506196        2       0.00067167      -0.00235020      -0.00218042
Al       5.77988572       6.49154951      19.20599712        2      -0.00165547       0.00148412      -0.00404958
Al       8.67516647       6.51264513      19.25973096        2       0.00058141      -0.00032946      -0.01028139
Al      11.52516367       6.48023718      19.37566168        2       0.00126057      -0.00028847       0.00123159
Al       4.37382640       8.98678466      19.39037102        2       0.00006328      -0.00046280      -0.00595567
Al       7.23122990       9.00369796      19.34402994        2      -0.00020969       0.00172530      -0.00718087
Al      10.07063358       8.96753235      19.45197838        2       0.00074907       0.00092362      -0.00110495
Al      12.94480702       8.98636995      19.50207671        2       0.00140955       0.00013609      -0.00077245
Al      -0.10277971      -0.26323703      21.90112948        1      -0.00005899      -0.00338960      -0.00210136
Al       2.68776438      -0.21653661      22.12777300        1       0.00071247       0.00362932       0.00122621
Al       5.59626633      -0.09233953      21.87509838        1      -0.00173175      -0.00143269       0.00809778
Al       8.54266302      -0.08944266      22.03402823        1      -0.00097340      -0.00540042       0.00084692
Al       1.38816474       2.41503800      21.98942697        1       0.00277416      -0.00119196       0.00545880
Al       4.27056454       2.41339270      21.63715468        1      -0.00287713      -0.00398919      -0.00180781
Al       7.11925622       2.35874658      21.57897056        1      -0.00220252       0.00382821       0.00266498
Al      10.00046195       2.31984260      21.66855385        1      -0.00138287       0.00525233      -0.00329364
Al       2.77562031       4.84437751      21.56785955        1       0.00266214      -0.00322388       0.00025007
Al       5.68349672       4.80823538      21.51650316        1       0.00152116       0.00266669      -0.00451407
Al       8.43708031       4.78480151      21.57122187        1       0.00490722       0.00447364      -0.00046902
Al      11.21524885       4.88479191      21.90426874        1       0.00632695      -0.00305175       0.00011543
Al       4.21675578       7.25226285      21.67628724        1       0.00043384       0.00322787      -0.00441400
Al       7.00638059       7.25686384      21.54999751        1       0.00228279       0.00199424       0.00145148
Al       9.70150638       7.25067418      21.88992187        1       0.00108509      -0.00185144      -0.00185744
Al      12.79534413       7.27544467      21.88451556        1       0.00072019      -0.00183296      -0.00150279
C        5.00441035       5.15209151      24.90037389        0      -0.03787018       0.00056423      -0.00815105
N        5.59543124       3.96278382      25.04108510        0       0.00461830      -0.00412428      -0.00252341
C        6.92529382       4.27759980      25.12311152        0       0.02179826      -0.01762651       0.00266118
N        7.19682169       5.58677178      25.02570694        0       0.01320769       0.00420921      -0.00216402
N        5.94870885       6.13508892      24.92379332        0      -0.00341952       0.01429478       0.00176940
H        3.95066583       5.33654110      24.71072946        0      -0.00584399       0.00851549      -0.00445678
H        7.72150309       3.53610685      25.18328371        0       0.00224105      -0.00378986       0.00114419
H        5.83886250       7.06344896      24.52099989        0      -0.01288780       0.03548358      -0.02150327
