&FCI NORB=   5,NELEC=   2,MS2= 1,
  ORBSYM=1,1,1,1,1,
  ISYM=0,
 /
 5.5071720180288872E-02   1   1   1   1
-1.0792781081729938E-04   1   1   1   2
 5.7306324793938133E-05   1   1   1   3
 3.4554786336931124E-05   1   1   1   4
-8.3846440711404270E-05   1   1   1   5
 5.0534021747248879E-02   1   1   2   2
-3.4057053006879149E-06   1   1   2   3
-1.0655490946288518E-04   1   1   2   4
-2.6566598732639181E-04   1   1   2   5
 5.0581474691445819E-02   1   1   3   3
-4.1717550770011881E-04   1   1   3   4
 3.9005223147922609E-05   1   1   3   5
 5.0441834638155394E-02   1   1   4   4
 2.7010533643280932E-07   1   1   4   5
 5.0625903465826003E-02   1   1   5   5
 1.6041511283970381E-03   1   2   1   2
-7.2433262877757542E-06   1   2   1   3
-1.0923727979427870E-04   1   2   1   4
-2.8244687611876250E-04   1   2   1   5
 9.8073300408863727E-05   1   2   2   2
 4.6313540861963806E-05   1   2   2   3
-3.4774504400873800E-04   1   2   2   4
 3.2062533910326554E-04   1   2   2   5
 1.0845309682834360E-04   1   2   3   3
-2.4651740264929653E-04   1   2   3   4
-3.5214399234782009E-04   1   2   3   5
-3.3140231642496859E-04   1   2   4   4
-2.5759700039169176E-04   1   2   4   5
 3.1447622253954376E-04   1   2   5   5
 1.6501798332167268E-03   1   3   1   3
-4.3078744863770811E-04   1   3   1   4
 4.3325497857412803E-05   1   3   1   5
-1.2003180703281237E-05   1   3   2   2
 1.9453494989628948E-05   1   3   2   3
-2.3997148179520183E-04   1   3   2   4
-3.4931256943499065E-04   1   3   2   5
-1.4599610001375128E-04   1   3   3   3
 2.7599052203564642E-04   1   3   3   4
-2.3337100670758334E-04   1   3   3   5
 2.8173295422608420E-04   1   3   4   4
-3.1344330720904743E-04   1   3   4   5
-2.3538788294891913E-04   1   3   5   5
 1.5115839561684961E-03   1   4   1   4
 3.5060562447625671E-07   1   4   1   5
-3.3542799812510369E-04   1   4   2   2
-2.3295356817729852E-04   1   4   2   3
-3.4328554156116850E-04   1   4   2   4
-2.4949277130651673E-04   1   4   2   5
 2.6293273760727735E-04   1   4   3   3
 2.9126896378278797E-04   1   4   3   4
-2.9709508987355124E-04   1   4   3   5
 1.1649484516064131E-05   1   4   4   4
 4.4277333241802374E-05   1   4   4   5
 3.4105111325722959E-05   1   4   5   5
 1.7028928473985200E-03   1   5   1   5
 3.1278072659503042E-04   1   5   2   2
-3.3812268945560594E-04   1   5   2   3
-2.8609919630216306E-04   1   5   2   4
 3.2663245203779493E-04   1   5   2   5
-2.2298192763771989E-04   1   5   3   3
-3.5441937538410859E-04   1   5   3   4
-2.4585539728456105E-04   1   5   3   5
 5.1240920951552301E-05   1   5   4   4
 3.5041710063058812E-05   1   5   4   5
-6.5710751544377803E-05   1   5   5   5
 5.5018727389779531E-02   2   2   2   2
-8.9727384511487419E-06   2   2   2   3
 6.9418120848786184E-05   2   2   2   4
-1.0431334857995594E-04   2   2   2   5
 5.1908173995834556E-02   2   2   3   3
 4.2960765261243949E-05   2   2   3   4
 4.4513833801999137E-05   2   2   3   5
 5.0536619483706940E-02   2   2   4   4
 7.4044581088346059E-05   2   2   4   5
 5.0542623511186303E-02   2   2   5   5
 1.5587236950710115E-03   2   3   2   3
 3.8667765091310132E-05   2   3   2   4
 5.5155084627157417E-05   2   3   2   5
 1.5885802810024501E-05   2   3   3   3
-4.0762674535534512E-05   2   3   3   4
-3.5502212318124345E-05   2   3   3   5
-1.0342978417486550E-05   2   3   4   4
 6.3582329610077285E-05   2   3   4   5
 1.0743789581491988E-05   2   3   5   5
 1.6115814005573687E-03   2   4   2   4
 7.5777617260475036E-05   2   4   2   5
-2.8732021684341363E-05   2   4   3   3
-1.1806903627015091E-05   2   4   3   4
 5.2913266465581419E-04   2   4   3   5
 7.4735668354505808E-06   2   4   4   4
 1.3447423559971719E-05   2   4   4   5
-9.0940121066321010E-06   2   4   5   5
 1.6140630614448271E-03   2   5   2   5
-3.6611489627483745E-05   2   5   3   3
-4.0092058083808453E-04   2   5   3   4
 1.2406860297930960E-05   2   5   3   5
 1.2648992568915634E-05   2   5   4   4
 1.8387589522646396E-06   2   5   4   5
 3.5493571925594009E-05   2   5   5   5
 5.5013019044169061E-02   3   3   3   3
 8.2988462799024295E-05   3   3   3   4
-3.4001947669628753E-05   3   3   3   5
 5.0608341349141731E-02   3   3   4   4
-6.7996261770060819E-05   3   3   4   5
 5.0479657737097540E-02   3   3   5   5
 1.6822009048776995E-03   3   4   3   4
-6.9459963044738235E-05   3   4   3   5
-3.6177789653225325E-05   3   4   4   4
-3.4092301087008900E-06   3   4   4   5
-1.0969417740233419E-05   3   4   5   5
 1.5524192869450766E-03   3   5   3   5
 8.4477905506191629E-06   3   5   4   4
-8.7960497533846687E-06   3   5   4   5
 2.1566568586948984E-05   3   5   5   5
 5.5033065556850259E-02   4   4   4   4
-1.5869274955937772E-07   4   4   4   5
 5.1917380897044840E-02   4   4   5   5
 1.5599592486025377E-03   4   5   4   5
 2.2291516742993495E-07   4   5   5   5
 5.5034276194327651E-02   5   5   5   5
-9.3793722909969859E-02   1   1   0   0
-7.6616257124737923E-05   1   2   0   0
-5.2120250634548552E-06   1   3   0   0
 1.3074811392925110E-04   1   4   0   0
-1.7211405053198619E-04   1   5   0   0
-9.6329451520560661E-02   2   2   0   0
 3.8626242929716342E-04   2   3   0   0
 1.9850063180883480E-04   2   4   0   0
 1.5796402461393749E-03   2   5   0   0
-7.2126571501107850E-02   3   3   0   0
 6.4167975494674187E-03   3   4   0   0
-1.5429180547127310E-04   3   5   0   0
-9.4944615280069131E-02   4   4   0   0
-1.2687627745560032E-04   4   5   0   0
-7.0776556689466502E-02   5   5   0   0
-1.9934083239148947E+02   0   0   0   0
