&FCI NORB=   5,NELEC=   2,MS2= 1,
  ORBSYM=1,1,1,1,1,
  ISYM=0,
 /
 5.5419119242352329E-02   1   1   1   1
 2.8190843492827220E-05   1   1   1   2
 1.4291631849987099E-04   1   1   1   3
 6.6281200844460744E-06   1   1   1   4
 3.1010760904122279E-05   1   1   1   5
 5.1458064219796942E-02   1   1   2   2
 8.5417537358587801E-05   1   1   2   3
 3.9950174138178411E-04   1   1   2   4
 3.6396159984907146E-05   1   1   2   5
 5.1335053853009807E-02   1   1   3   3
 7.0609779778141432E-05   1   1   3   4
-3.2197957134793393E-04   1   1   3   5
 4.9077338271001900E-02   1   1   4   4
 3.4943743241228607E-05   1   1   4   5
 4.9918688655564349E-02   1   1   5   5
 1.7624174911369647E-03   1   2   1   2
 1.6154470866261927E-05   1   2   1   3
-1.4876723242326565E-04   1   2   1   4
-1.0653052420775404E-05   1   2   1   5
 3.8041097312846255E-04   1   2   2   2
-3.2145967610901021E-04   1   2   2   3
-3.1274796141042312E-05   1   2   2   4
-2.1546072513394103E-05   1   2   2   5
-1.5919156133690235E-04   1   2   3   3
-1.1139707346694357E-05   1   2   3   4
 7.8020426112133942E-05   1   2   3   5
-2.4995335786068059E-05   1   2   4   4
-1.4272835977813757E-04   1   2   4   5
 2.4474816392622414E-04   1   2   5   5
 1.7611951662227128E-03   1   3   1   3
 3.7683489238440584E-05   1   3   1   4
 1.1378967625649985E-04   1   3   1   5
-4.1930053977335405E-04   1   3   2   2
-7.8284394285813036E-05   1   3   2   3
-2.9447947143568075E-05   1   3   2   4
-8.6177115231301319E-05   1   3   2   5
 2.9082793995608889E-04   1   3   3   3
 1.8795060510565510E-05   1   3   3   4
 7.1586839244015065E-05   1   3   3   5
 2.5430946139415833E-05   1   3   4   4
 1.9420512610188778E-04   1   3   4   5
-7.0672693747881655E-05   1   3   5   5
 1.1281185486185397E-03   1   4   1   4
 4.9773197638343088E-04   1   4   1   5
-9.4155112817111199E-05   1   4   2   2
 4.0818358879451006E-08   1   4   2   3
 1.9631182647725736E-05   1   4   2   4
-1.1585172639387764E-04   1   4   2   5
 4.2789015204846591E-05   1   4   3   3
 1.5817129188607726E-05   1   4   3   4
-1.1525980516202492E-04   1   4   3   5
-5.1504146707855954E-05   1   4   4   4
-1.6663512003252461E-05   1   4   4   5
 1.7073103337465591E-04   1   4   5   5
 4.8983637417602923E-03   1   5   1   5
-1.6130170041988808E-04   1   5   2   2
-1.0087330074214937E-04   1   5   2   3
 3.3047590366635127E-04   1   5   2   4
 1.6413718511335809E-04   1   5   2   5
-4.2645044587472639E-04   1   5   3   3
-7.3767703106162973E-06   1   5   3   4
-6.7163894614529515E-04   1   5   3   5
-1.3008866589527468E-04   1   5   4   4
-3.3649259286834085E-05   1   5   4   5
 1.1001077597468450E-04   1   5   5   5
 5.4610272443829634E-02   2   2   2   2
 2.7014787485012186E-04   2   2   2   3
-9.5887632967455331E-05   2   2   2   4
-2.6724424202105073E-05   2   2   2   5
 5.1184158056457985E-02   2   2   3   3
 3.9033743999941208E-05   2   2   3   4
 1.1331664417344726E-04   2   2   3   5
 4.9617827707372830E-02   2   2   4   4
 5.6873785642492397E-05   2   2   4   5
 4.9780438744839464E-02   2   2   5   5
 1.8447654445031565E-03   2   3   2   3
-1.4740217220875681E-05   2   3   2   4
 2.5231728882524252E-05   2   3   2   5
-1.0000195916992851E-04   2   3   3   3
-1.9937581127848021E-05   2   3   3   4
 8.8800405513381948E-06   2   3   3   5
-4.9026363419923849E-05   2   3   4   4
 6.3867329125772795E-05   2   3   4   5
-5.0596744442302279E-05   2   3   5   5
 1.7473112504741658E-03   2   4   2   4
 2.4020861974918267E-04   2   4   2   5
-2.1206564518217670E-05   2   4   3   3
 3.8934842546203721E-05   2   4   3   4
-4.9823560436203825E-04   2   4   3   5
 1.3472223835630311E-04   2   4   4   4
-3.9167346543376467E-06   2   4   4   5
-5.6327055068527827E-05   2   4   5   5
 1.1070144692456397E-03   2   5   2   5
 3.7676346754702083E-05   2   5   3   3
-7.5306125744857669E-05   2   5   3   4
-1.3902355344989336E-04   2   5   3   5
-1.7386573084238419E-05   2   5   4   4
 2.7876210061184422E-05   2   5   4   5
 1.0813841144033613E-05   2   5   5   5
 5.4134002109639590E-02   3   3   3   3
 2.7885861767157317E-05   3   3   3   4
 1.2916276168228408E-04   3   3   3   5
 4.9576624643294903E-02   3   3   4   4
-5.9104210301322508E-05   3   3   4   5
 4.9501602953281730E-02   3   3   5   5
 1.1090735845770713E-03   3   4   3   4
-8.0661907630486928E-05   3   4   3   5
 4.3472265073090559E-05   3   4   4   4
 5.1103665526590281E-06   3   4   4   5
 3.2851331857828091E-05   3   4   5   5
 1.7104123588935799E-03   3   5   3   5
-3.8093329147179065E-05   3   5   4   4
-2.4775545219912033E-06   3   5   4   5
-1.8528628310578759E-05   3   5   5   5
 5.1234418392416596E-02   4   4   4   4
-1.9777433053562259E-04   4   4   4   5
 4.8218881398640535E-02   4   4   5   5
 1.6665592883112414E-03   4   5   4   5
-8.1768756400733627E-05   4   5   5   5
 5.1715516277082728E-02   5   5   5   5
-3.7828274565396544E-02   1   1   0   0
 1.7923889719203201E-03   1   2   0   0
-6.1368261160210397E-03   1   3   0   0
-2.7471962432108864E-05   1   4   0   0
-3.9950475707578289E-04   1   5   0   0
-8.6382876515256640E-02   2   2   0   0
-7.9716350979155558E-04   2   3   0   0
-5.9547859986877421E-04   2   4   0   0
-1.2853627959567314E-04   2   5   0   0
-8.4920893677651446E-02   3   3   0   0
-7.5557224275984416E-05   3   4   0   0
 5.1092768143400156E-04   3   5   0   0
-6.2979736742160231E-02   4   4   0   0
 3.3915250560372849E-04   4   5   0   0
-5.9667732763051484E-02   5   5   0   0
-2.4135808581054201E+02   0   0   0   0
