110
Lattice="11.45512985522207 0.0 0.0 5.727564927611035 9.92043345827187 0.0 0.0 0.0 31.691342951089922" Properties=species:S:1:pos:R:3:tags:I:1:forces:R:3 energy=-462.1583251953125 free_energy=-462.1583251953125 stress="0.006049496587365866 2.1685846149921417e-06 -7.497146725654602e-08 2.1685846149921417e-06 0.006091670598834753 1.148320734500885e-06 -7.497146725654602e-08 1.148320734500885e-06 0.006162106525152922" pbc="T T F"
Al       2.82632203       1.01735388       9.95158666        6      -0.00053788       0.00311290       0.00264994
Al       5.67501716       1.04712295       9.92390417        6       0.00196976      -0.00052909       0.00238368
Al       8.54909186       1.02820938       9.96612327        6      -0.00083545       0.00216044       0.00079239
Al      11.40950605       1.03982945       9.94316839        6      -0.00027688       0.00074143       0.00278451
Al       4.25663321       3.51446177       9.98807570        6       0.00314998       0.00117996      -0.00983024
Al       7.14433618       3.50622285      10.02250455        6      -0.00340633       0.00324009      -0.01541343
Al      10.00979445       3.51651773       9.93667054        6      -0.00354596       0.00143746       0.00251374
Al      12.86436199       3.50050106       9.98224828        6      -0.00188882       0.00316273      -0.00279306
Al       5.71430649       5.98495357       9.97199310        6      -0.00200345       0.00202815      -0.00045592
Al       8.57192702       6.00000936      10.01703802        6      -0.00178955       0.00007677      -0.00148796
Al      11.42652708       5.99294699       9.88963126        6      -0.00004524       0.00257092       0.00541637
Al      14.29018169       5.98537455       9.97603307        6       0.00002653       0.00346279      -0.00393631
Al       7.11374274       8.47187442      10.00189031        6      -0.00067625       0.00241549      -0.00224127
Al       9.97739152       8.47295630       9.85184416        6       0.00046458       0.00259708       0.00620535
Al      12.83953847       8.46454093       9.91645165        6       0.00012283       0.00357808       0.00436363
Al      15.71103198       8.46836677       9.99149488        6      -0.00100407       0.00170786      -0.00247629
Al       1.37909677       1.84136802      12.34665019        5      -0.00056561       0.01819652      -0.02316118
Al       4.24603971       1.82988478      12.33669954        5       0.00569974       0.00769089      -0.00268810
Al       7.10965912       1.83594707      12.35451039        5       0.00135373       0.00739086      -0.02625284
Al       9.96586851       1.84423584      12.34937497        5       0.01599679       0.02785261      -0.03302896
Al       2.82515942       4.32171603      12.34606935        5       0.00357391      -0.00017906      -0.00874526
Al       5.70030381       4.33076516      12.34516718        5      -0.00959733      -0.00090267       0.00681461
Al       8.55414932       4.33429877      12.37313759        5       0.01099459       0.00974766      -0.03694899
Al      11.41521644       4.34223728      12.32316082        5      -0.02035978      -0.01634712      -0.00925915
Al       4.25200161       6.79594273      12.35776802        5       0.00585591       0.01978576      -0.01553361
Al       7.11542357       6.82999255      12.36746398        5       0.00318732      -0.01027902      -0.01798042
Al       9.99846091       6.82179932      12.35723743        5      -0.02085521      -0.00508024      -0.06874386
Al      12.84656851       6.80648444      12.31762880        5      -0.01047325       0.01371863      -0.01814252
Al       5.68241961       9.30244129      12.37099478        5      -0.01320102      -0.01194440      -0.07177646
Al       8.55671955       9.29333118      12.34706459        5       0.00780943      -0.01383683      -0.04746651
Al      11.41350464       9.28007798      12.32053141        5      -0.01055970       0.00601150      -0.02643792
Al      14.26387325       9.28643017      12.34143479        5       0.00640844       0.00030546      -0.01205062
Al       1.37308944       0.20025574      14.61232311        4      -0.00599398      -0.00133722       0.04793504
Al       4.23096699       0.18145002      14.64545161        4       0.00011869       0.00822605      -0.00817874
Al       7.09059285       0.18477829      14.63534846        4       0.00631152       0.00913606       0.00913346
Al       9.95465970       0.20765543      14.62400090        4      -0.00223032      -0.00638620       0.04569593
Al       2.78980755       2.67613600      14.63045626        4       0.00168382       0.00087107       0.01397488
Al       5.64934664       2.66606730      14.61104238        4       0.00611722       0.00788150       0.02414701
Al       8.51730285       2.69181353      14.63341111        4       0.00475246      -0.01136124       0.03548822
Al      11.38464053       2.69334405      14.63242997        4      -0.00620032      -0.00590007       0.01458471
Al       4.23524847       5.13868493      14.63490387        4      -0.00869488       0.01904624       0.02010963
Al       7.08397246       5.18398656      14.64439478        4      -0.01086073      -0.01513183      -0.01350463
Al       9.94884595       5.16790781      14.65444325        4       0.01796927      -0.00344531       0.00615381
Al      12.81362190       5.15328796      14.58651327        4       0.01075039       0.00707512       0.05881847
Al       5.63762324       7.66112165      14.63845248        4       0.00485903      -0.00316828       0.03449816
Al       8.51851693       7.63602441      14.64903024        4      -0.00070014       0.01252391       0.00348392
Al      11.40521768       7.63442885      14.63264977        4      -0.00413449       0.00363544       0.01393985
Al      14.23999447       7.62939319      14.62174320        4       0.02218701       0.00711749       0.04269126
Al       2.74615735       1.03271448      16.95496551        3       0.00526560      -0.00025061      -0.02171559
Al       5.61663541       1.02979325      16.93971633        3       0.00596074       0.01318227      -0.04219497
Al       8.50525040       1.02582436      16.96173873        3       0.00142502       0.01706425      -0.04671170
Al      11.36150024       1.02588272      16.96432751        3      -0.00920392      -0.00094385      -0.03622853
Al       4.18383485       3.51295980      16.95441173        3      -0.00315990       0.01638670      -0.01251198
Al       7.03912124       3.54719168      16.92432908        3       0.00588465      -0.02541782      -0.00628519
Al       9.91357204       3.52961073      16.99040845        3      -0.01078490      -0.01136012      -0.08046186
Al      12.76144382       3.52128492      16.95551411        3       0.03272723       0.02156960      -0.03588958
Al       5.61407589       6.01865684      16.96041850        3      -0.02320609       0.01058393       0.00183179
Al       8.44652109       6.00144414      16.93745672        3       0.05761421       0.03130828       0.02754628
Al      11.36844388       6.01411778      16.96092668        3      -0.00907961      -0.01255912      -0.04529034
Al      14.21475820       6.00782491      16.96621903        3       0.01228839      -0.00558369      -0.01302382
Al       7.03198991       8.47768402      16.99038076        3       0.01318555       0.00502699      -0.01714011
Al       9.90179166       8.47083887      16.94716135        3       0.00818003       0.00190641      -0.01726420
Al      12.80142475       8.48947447      16.96928596        3      -0.00308618      -0.00815558      -0.03429312
Al      15.65673888       8.47780648      17.03803441        3      -0.01085611      -0.00696574      -0.07889281
Al       1.30732071       1.90189458      19.21642551        2       0.02044237      -0.00695620       0.03444481
Al       4.18207379       1.87339391      19.20936668        2      -0.01026974       0.01383959       0.05427641
Al       7.04687565       1.90496947      19.15063018        2       0.01100319      -0.00608003       0.06793951
Al       9.94331675       1.86763959      19.24259337        2      -0.03097337      -0.01660395       0.02869229
Al       2.75265159       4.37717002      19.27003119        2       0.00175739       0.00273872       0.00247062
Al       5.60354603       4.41589669      19.23202696        2      -0.01052527      -0.02149560       0.08218216
Al       8.44039390       4.41004319      19.23199672        2       0.03449504      -0.02346055       0.00105740
Al      11.32111788       4.36839695      19.23110780        2       0.01766046       0.00814880       0.01604859
Al       4.17958461       6.84295880      19.37296308        2      -0.00242275       0.01612595       0.05167735
Al       7.01603440       6.83779622      19.31546848        2       0.01786329       0.04368738       0.04784879
Al       9.89794447       6.83013714      19.19374183        2      -0.00251994       0.02764807       0.07260648
Al      12.78629727       6.85926096      19.23883350        2      -0.00919282       0.00192109       0.01159217
Al       5.59639226       9.32446021      19.34969680        2      -0.00769379      -0.01464172      -0.00097079
Al       8.47493560       9.32346694      19.25830414        2       0.00002951      -0.01291281       0.02452946
Al      11.31116208       9.32988806      19.20349511        2       0.00856751      -0.00873565       0.03913882
Al      14.20671363       9.33918052      19.27690348        2       0.00161965       0.00656384       0.02063257
Al       1.31708249       0.29165793      21.51151521        1      -0.03503519      -0.01265121       0.11008654
Al       4.13153585       0.26510782      21.66541973        1       0.01064008       0.01190803      -0.00780352
Al       6.95384619       0.30671206      21.46200683        1       0.03822383      -0.00997967      -0.00502844
Al       9.85225786       0.30588242      21.90709732        1      -0.00889749       0.01676800       0.02335075
Al       2.79523254       2.75292941      21.56287687        1      -0.04208352      -0.01707979       0.00309800
Al       5.65206753       2.77758314      21.43316738        1      -0.04188159       0.01994399       0.14372431
Al       8.52381812       2.73500007      21.42320229        1      -0.06265987       0.02196450       0.02572034
Al      11.33373311       2.75002912      21.55629933        1       0.01700582      -0.01282129      -0.08632131
Al       4.06435215       5.24674554      21.88862572        1       0.01094085      -0.02398640      -0.01926267
Al       7.13791175       5.16520815      21.66442841        1      -0.11275883       0.03480453      -0.05899522
Al       9.95008721       5.24556366      21.56092205        1      -0.05225976      -0.02227764      -0.02712520
Al      12.70868542       5.21445173      21.56085664        1       0.02570883       0.01340064      -0.00522671
Al       5.54333276       7.73630778      21.90568510        1       0.00729591       0.01268426      -0.05413476
Al       8.42105537       7.66641497      21.68326445        1       0.00420049       0.04454109      -0.03812761
Al      11.28239298       7.71621972      21.53939236        1       0.00290765       0.01102324       0.00474254
Al      14.09725957       7.76465720      21.67227849        1       0.02923817      -0.00411351      -0.01402556
C       -0.90012433       4.32159298      25.17810924        0      -0.05378275       0.01603846      -0.00437953
C       -0.77384630       2.99734958      24.77459889        0       0.15621032      -0.22471800      -0.08868768
C       -1.94369369       2.21373667      24.69582917        0      -0.08503506       0.24929246       0.09716956
N       -2.11924554       0.89605001      24.36598042        0      -0.32062507       0.06134105       0.04378857
N       -3.43115476       0.68641467      24.68410994        0      -0.10869420       0.43038180      -0.01093865
N       -4.14946583       1.79552564      24.98548513        0       0.27292860      -0.56014729      -0.03768274
C       -3.21785534       2.78142368      25.04867307        0       0.12134876      -0.56184107      -0.05960976
C       -3.33489849       4.11834588      25.46561558        0       0.25171256       0.17560413      -0.01638810
C       -2.16759772       4.86556268      25.54331500        0      -0.03994957      -0.26086196      -0.00644929
H       -0.01629380       4.96433415      25.19863266        0      -0.02672323      -0.02545024       0.01047189
H        0.18902628       2.52814162      24.53003295        0      -0.10010253       0.17848520       0.07503445
H       -3.89576709      -0.16991708      24.36380226        0       0.04325812       0.07844768      -0.00005825
H       -4.30529108       4.53757826      25.72299879        0      -0.06561125       0.02480336       0.01095376
H       -2.21520043       5.87996239      25.92835206        0       0.05055825       0.16505617      -0.02958330
