110
Lattice="11.45512985522207 0.0 0.0 5.727564927611035 9.92043345827187 0.0 0.0 0.0 31.691342951089922" Properties=species:S:1:pos:R:3:tags:I:1:forces:R:3 energy=-462.00421142578125 free_energy=-462.00421142578125 stress="0.004965100437402725 2.72504985332489e-06 -3.511086106300354e-07 2.72504985332489e-06 0.005022253841161728 -1.1622905731201172e-06 -3.511086106300354e-07 -1.1622905731201172e-06 0.004810438957065344" pbc="T T F"
Al       2.36088661       1.22229319      10.02963647        6       0.00171578       0.00086217       0.00091227
Al       5.22039614       1.22189449       9.97427291        6       0.00271083       0.00039680       0.00174831
Al       8.08423447       1.23053754       9.98752386        6       0.00245087       0.00091650       0.00171375
Al      10.94663704       1.23400391      10.01952777        6       0.00258227      -0.00017805       0.00029628
Al       3.80005639       3.69842775      10.00576838        6       0.00129152       0.00134605       0.00227966
Al       6.65603656       3.70509709      10.00963199        6       0.00208206       0.00045158       0.00171263
Al       9.52121739       3.72057685      10.04831864        6       0.00211772      -0.00139450      -0.00145690
Al      12.38122921       3.70835977      10.02797489        6       0.00372008      -0.00043846      -0.00152526
Al       5.21643643       6.18699295      10.01331053        6       0.00251746      -0.00006820       0.00099999
Al       8.07208935       6.19216792       9.99987673        6       0.00326679      -0.00018946       0.00186445
Al      10.94391625       6.19357378      10.03600781        6       0.00318876      -0.00078395      -0.00159759
Al      13.81647820       6.18506386      10.02040489        6       0.00252946      -0.00062266      -0.00045560
Al       6.64561213       8.66974006       9.98105941        6       0.00156981       0.00119874       0.00311585
Al       9.50805780       8.67141181       9.98881381        6       0.00273912      -0.00069153       0.00191766
Al      12.38019794       8.66822859       9.99893800        6       0.00251508      -0.00020216       0.00052682
Al      15.24208453       8.67148940       9.99724484        6       0.00271624      -0.00033706       0.00065134
Al       1.06214978       1.99291714      12.40057664        5       0.00122954       0.01122231      -0.00316485
Al       3.93340070       1.99956706      12.36440199        5       0.00176512       0.00293802       0.00572422
Al       6.79627963       2.00075997      12.37740671        5       0.00421019       0.00393441      -0.00784684
Al       9.65916744       2.00333491      12.39923929        5      -0.00404485       0.00291737      -0.00439535
Al       2.49415709       4.48471240      12.38266905        5       0.00838135      -0.00351906      -0.00105369
Al       5.35891387       4.48784492      12.38529939        5       0.00296319      -0.00053077       0.00307985
Al       8.21424696       4.49296854      12.40745490        5       0.00605370      -0.00447766      -0.00527104
Al      11.08453816       4.48565586      12.40705828        5       0.00049143       0.00039255       0.00010842
Al       3.92910551       6.96400608      12.39045670        5       0.00428316       0.00280155      -0.00149221
Al       6.79213564       6.96544196      12.38698560        5       0.00210062       0.00292199       0.00584131
Al       9.65577021       6.96343579      12.40787996        5      -0.00558930       0.00652479      -0.00904368
Al      12.52562152       6.96437103      12.38891565        5      -0.00444142       0.00432029      -0.00410934
Al       5.36300966       9.43855893      12.38776045        5       0.00185336      -0.00295967      -0.01119761
Al       8.22400445       9.44581613      12.38227564        5       0.00850701      -0.01287420      -0.00517992
Al      11.09532719       9.44455477      12.37754229        5      -0.00264517      -0.00356385      -0.01782487
Al      13.95375008       9.44689888      12.37163348        5       0.00446311      -0.00115164      -0.00321419
Al       1.15150922       0.29154691      14.66391067        4       0.00191515      -0.00126839       0.01190084
Al       4.02866319       0.30640314      14.65227397        4      -0.00704394      -0.00308902       0.00870403
Al       6.88443398       0.29332717      14.65929055        4       0.00213266       0.00315285       0.00490223
Al       9.73925481       0.29658495      14.65779150        4       0.00311016      -0.00487610       0.01482525
Al       2.59460104       2.78932999      14.66516781        4      -0.00068134      -0.00375766       0.00192672
Al       5.44999496       2.78155243      14.65338952        4       0.00296200       0.00137378       0.00887407
Al       8.31043416       2.79117658      14.68545409        4      -0.00075728      -0.00683241       0.00318540
Al      11.17202681       2.78152608      14.69410704        4       0.00125160       0.00069235       0.00177868
Al       4.01965872       5.26969984      14.68039211        4       0.00229361      -0.00186430       0.00108527
Al       6.87650950       5.26779300      14.70606149        4      -0.00142977      -0.00043071      -0.01054368
Al       9.73695971       5.25732955      14.70541114        4       0.00155133       0.00241556       0.00202249
Al      12.61309170       5.26325870      14.66633412        4      -0.00017371       0.00079021       0.00867275
Al       5.45018581       7.72622074      14.69325325        4      -0.00201632       0.00930562       0.00285177
Al       8.31142773       7.73911999      14.70590368        4      -0.00024556       0.00319999      -0.00871288
Al      11.17954724       7.74790781      14.67361879        4       0.00099939      -0.00154564       0.00234696
Al      14.02998749       7.73950889      14.66726958        4       0.01193301       0.00296686       0.01237505
Al       2.69207150       1.04073332      16.95381379        3       0.00159359      -0.00047506      -0.00904911
Al       5.56766375       1.04647869      16.95764378        3      -0.00008673       0.00605252      -0.00964734
Al       8.42886809       1.04243310      16.97011282        3       0.00106006       0.00050908      -0.01122760
Al      11.27856761       1.03511666      16.96630400        3       0.00070254      -0.00328809      -0.00704665
Al       4.13280878       3.52578574      16.96425404        3       0.00024507       0.01063308       0.00286259
Al       6.98009523       3.56897085      16.98610181        3      -0.00144125      -0.01761201      -0.00241088
Al       9.83894647       3.54034854      17.00943889        3      -0.00390481       0.00060519      -0.01789405
Al      12.70626985       3.53100877      16.96485256        3       0.00670692       0.00434146      -0.00815357
Al       5.55492267       6.03019685      17.02250458        3      -0.01153439      -0.00204917       0.00542725
Al       8.39497548       6.02145331      17.01628556        3       0.01179342       0.00852320       0.00551932
Al      11.28605712       6.02264882      16.97337879        3      -0.00085164       0.00025638      -0.01022754
Al      14.16015824       6.01394505      16.98151850        3       0.00140771       0.00218001       0.00010922
Al       6.97899484       8.47337634      17.01859868        3       0.00469926       0.00999670      -0.00113204
Al       9.86557768       8.49638936      16.97091955        3      -0.00260623       0.00078641       0.00186758
Al      12.73143642       8.49665286      16.98405255        3       0.00079529       0.00221347       0.00104830
Al      15.58697350       8.47540795      17.02261947        3      -0.00694016       0.00572377      -0.02008595
Al       1.31358870       1.83877601      19.19599876        2       0.00294340       0.00188345       0.01097743
Al       4.20952093       1.84521564      19.20922445        2      -0.00496738      -0.00112138       0.02071193
Al       7.07912140       1.84683361      19.20677816        2      -0.00330961       0.00118876       0.01497444
Al       9.94450873       1.82776805      19.24259489        2      -0.00118475      -0.00057522       0.00453289
Al       2.74918642       4.33397525      19.22876234        2       0.00287733       0.00253127      -0.00067983
Al       5.62254690       4.36489000      19.29556379        2      -0.00499291       0.00108792       0.00909386
Al       8.46952544       4.35133594      19.30096377        2       0.00756171       0.00111449      -0.01060483
Al      11.35042762       4.34865995      19.22065102        2       0.00037763       0.00011194       0.00124868
Al       4.21634621       6.79707343      19.39923635        2       0.00151540       0.00215437       0.00344110
Al       7.05007354       6.80354057      19.38435905        2       0.00670614       0.00758114      -0.00552548
Al       9.94958719       6.82671444      19.25574994        2      -0.00262259       0.00203020       0.00752854
Al      12.81511457       6.81068428      19.23062595        2      -0.00127829       0.00852227       0.01273172
Al       5.60875190       9.28618295      19.30472421        2       0.00032948       0.00258210       0.00784807
Al       8.52353887       9.29112736      19.24655806        2       0.00067873      -0.00183404       0.01026279
Al      11.37602970       9.29660582      19.25810080        2      -0.00652436       0.00460224       0.01224090
Al      14.26476673       9.29139976      19.31962930        2      -0.00344063       0.00250988       0.00058927
Al       1.45554083       0.19498845      21.47927681        1      -0.00969185      -0.00084528       0.03050270
Al       4.24812622       0.21909805      22.05370012        1       0.00311490       0.00843287      -0.01515935
Al       7.12275576       0.22587860      21.53261731        1       0.00230393      -0.00091609      -0.00962215
Al      10.20980190       0.14529585      22.04444999        1      -0.00955423       0.00698233      -0.00640194
Al       2.87035477       2.67016483      21.49937595        1      -0.01370112      -0.00074631       0.00193106
Al       5.74364600       2.70766906      21.48848809        1      -0.01082378       0.00496699       0.05428369
Al       8.63682293       2.59842169      21.49423402        1      -0.02093251       0.01114003       0.00802864
Al      11.42153509       2.73178359      21.50291082        1       0.01405959      -0.01393633      -0.02809769
Al       4.21007056       5.09223618      21.99689468        1       0.00066311       0.00112362      -0.00737244
Al       7.32981784       5.07110620      21.79436762        1      -0.03224948       0.01108585      -0.03359349
Al      10.11895168       5.18399410      21.61715650        1      -0.02284555      -0.00440809      -0.01362204
Al      12.89587288       5.16659242      21.55837514        1       0.00340173      -0.00018323      -0.01074948
Al       5.75688277       7.56862026      22.00680337        1      -0.00609186       0.00819721      -0.00898514
Al       8.64501756       7.61894418      21.59423693        1      -0.00850496      -0.00006007       0.00354605
Al      11.57189944       7.62572226      21.59405641        1      -0.02251123       0.01666962      -0.00287135
Al      14.38219416       7.67840063      21.70493297        1      -0.00234202       0.00537430      -0.00550577
C        0.18798994       3.82411232      24.85170443        0      -0.06429023       0.00531676      -0.01920489
C        0.20056767       2.46885618      24.51091650        0       0.07939736      -0.06277073      -0.02910876
C       -1.02976401       1.79050865      24.48208346        0       0.01747162       0.10494060       0.02195174
N       -1.33715947       0.49205732      24.09766690        0      -0.13889873       0.04081118       0.02611433
N       -2.64875653       0.37413564      24.53462184        0      -0.14186567       0.17395546       0.00754926
N       -3.25788871       1.54068039      24.82031336        0       0.16981511      -0.27042168      -0.01731194
C       -2.24161566       2.44742984      24.85892608        0       0.05277561      -0.20106252      -0.02083682
C       -2.24378954       3.81892773      25.19065272        0       0.10056540       0.09429649      -0.01086293
C       -1.02746980       4.49296570      25.16457541        0       0.01590868      -0.10909902       0.02203654
H        1.13019081       4.37796114      24.83088536        0      -0.01440057       0.01469147       0.01028558
H        1.13045640       1.93330403      24.28692485        0      -0.06481638       0.07944262       0.02036309
H       -3.20691865      -0.42486012      24.21916066        0       0.00847958       0.00875786      -0.00240992
H       -3.17963101       4.33183855      25.41585751        0       0.01478976      -0.01431260       0.00191908
H       -1.00129436       5.56203324      25.38144562        0       0.01936673       0.01041288      -0.00597962
