110
Lattice="11.45512985522207 0.0 0.0 5.727564927611035 9.92043345827187 0.0 0.0 0.0 31.691342951089922" Properties=species:S:1:pos:R:3:tags:I:1:forces:R:3 energy=-461.8470153808594 free_energy=-461.8470153808594 stress="0.004672844894230366 2.923887223005295e-06 -2.812594175338745e-07 2.923887223005295e-06 0.00472218869253993 -1.2926757335662842e-06 -2.812594175338745e-07 -1.2926757335662842e-06 0.004483581520617008" pbc="T T F"
Al       2.30750903       1.22699394      10.03506163        6       0.00203715      -0.00014410      -0.00019957
Al       5.16504368       1.23782528       9.96966890        6       0.00374494      -0.00103705       0.00117007
Al       8.02798035       1.24325304       9.97045145        6       0.00366940      -0.00066910       0.00150657
Al      10.89149684       1.24108683      10.00360504        6       0.00335202      -0.00170946       0.00002594
Al       3.74056210       3.70973594      10.00709877        6       0.00386504      -0.00091445      -0.00184108
Al       6.60646090       3.71840749      10.00633561        6       0.00340348      -0.00115015      -0.00008319
Al       9.47679653       3.72609392      10.02159104        6       0.00195852      -0.00126392       0.00023391
Al      12.33557509       3.71309577      10.02487919        6       0.00321197      -0.00156786      -0.00137983
Al       5.16433993       6.19092286      10.01135880        6       0.00346851      -0.00044364       0.00044118
Al       8.02611613       6.19900297      10.01722004        6       0.00326400      -0.00038066       0.00111706
Al      10.89615809       6.19833860      10.03101894        6       0.00281357      -0.00050982       0.00021144
Al      13.76354392       6.18829535      10.03356052        6       0.00306053      -0.00055845      -0.00149105
Al       6.57953201       8.67950272       9.97191815        6       0.00374006      -0.00073058       0.00244647
Al       9.45053130       8.68226171       9.95246758        6       0.00297888      -0.00118101       0.00342791
Al      12.32139764       8.67782469       9.98918598        6       0.00339886      -0.00108658       0.00052855
Al      15.18249417       8.67472497       9.99471088        6       0.00283250      -0.00012182       0.00158509
Al       1.01719677       2.00199779      12.40034269        5      -0.00064273       0.01306712      -0.01093299
Al       3.88849366       2.00697003      12.36881504        5       0.00408837       0.00088885       0.00247895
Al       6.75243559       2.00093083      12.37003808        5       0.00132282       0.00932172      -0.00824764
Al       9.61024060       2.00975657      12.38573252        5       0.00156649       0.00751440      -0.00797540
Al       2.45463209       4.49069941      12.38140845        5       0.00357177      -0.00118037       0.00297150
Al       5.31693353       4.49425034      12.37758169        5       0.00242169      -0.00072250       0.00696138
Al       8.17389666       4.50013164      12.39086784        5       0.00645042      -0.00352778      -0.00142673
Al      11.04439013       4.49532664      12.39688449        5      -0.00500960      -0.00174095      -0.00217906
Al       3.88236881       6.97517573      12.38377298        5       0.00616337       0.00151054       0.00074778
Al       6.74394823       6.97798115      12.38780047        5       0.00379536       0.00225651       0.00041556
Al       9.61183939       6.98105180      12.39978417        5      -0.00863759      -0.00192631      -0.01962919
Al      12.47669777       6.97701010      12.38686250        5      -0.00221878       0.00144026      -0.01068197
Al       5.31882896       9.45324998      12.38118866        5       0.00107944      -0.00780630      -0.01840162
Al       8.18229229       9.45621186      12.37459057        5       0.00778299      -0.01902973      -0.01296403
Al      11.04618328       9.44970839      12.37077377        5      -0.00138863       0.00087215      -0.02201069
Al      13.90708406       9.45514952      12.36472665        5       0.00477044      -0.00058812      -0.00271534
Al       1.11471460       0.30124677      14.65454496        4       0.00007455      -0.00379534       0.02538097
Al       3.98654425       0.30106604      14.65666776        4      -0.00437695       0.00039304       0.00495291
Al       6.83829844       0.29234521      14.65553162        4       0.00498557       0.00709509       0.00537911
Al       9.69919261       0.31627628      14.64760926        4       0.00272812      -0.00945654       0.02193119
Al       2.55803500       2.79021808      14.66385794        4      -0.00106539      -0.00256138       0.00466190
Al       5.41066198       2.78253115      14.65032072        4       0.00165757       0.00170510       0.01071970
Al       8.26320802       2.80282404      14.66647611        4       0.00558557      -0.00971326       0.01053092
Al      11.13758846       2.79743082      14.68607239        4      -0.00324764      -0.00233339       0.00197902
Al       3.98265831       5.27055303      14.67477985        4       0.00062290      -0.00033274       0.00320351
Al       6.83367904       5.27208351      14.69168919        4       0.00100770      -0.00308287      -0.01860746
Al       9.69218144       5.26971622      14.69512348        4       0.00422361       0.00002963      -0.00085986
Al      12.56452720       5.26746444      14.65129367        4       0.00383173       0.00170533       0.02118825
Al       5.40552131       7.74081584      14.68256377        4      -0.00314545       0.00908270       0.00746368
Al       8.26248465       7.73819435      14.69652228        4       0.00274176       0.00741818      -0.00481432
Al      11.13282074       7.75280312      14.66167185        4       0.00185966      -0.00357529       0.01329220
Al      13.98799628       7.74483152      14.65874516        4       0.01459959       0.00460548       0.02004923
Al       2.66582276       1.04980899      16.95871328        3      -0.00466975      -0.00029011      -0.00264685
Al       5.52781317       1.06005037      16.95758848        3       0.00154022       0.00600512      -0.01201787
Al       8.39458167       1.06630858      16.95822574        3       0.00209912       0.00117165      -0.01984248
Al      11.25407862       1.06636032      16.96333394        3       0.00262490      -0.00918421      -0.01553704
Al       4.09191387       3.53316064      16.97351702        3       0.00144076       0.01025413      -0.00042518
Al       6.94354710       3.57037883      16.97636003        3       0.00435638      -0.01642955      -0.00470114
Al       9.80327027       3.55647344      17.00862237        3      -0.00323847       0.00102386      -0.02861064
Al      12.68117885       3.54485535      16.96093709        3       0.00732313       0.01088141      -0.01326373
Al       5.52594261       6.02974180      16.99901283        3      -0.02044359       0.00665100       0.00739863
Al       8.35734666       6.02326778      17.00463778        3       0.02176582       0.01052139       0.01066023
Al      11.24956310       6.03588875      16.97127881        3      -0.00103636       0.00320051      -0.00946051
Al      14.11968946       6.02777851      16.97125603        3       0.00158818       0.00480582      -0.00299475
Al       6.94800783       8.48389945      17.01291095        3       0.00550829       0.01707722      -0.00486224
Al       9.81913223       8.50319368      16.97266363        3       0.00026974      -0.00373381      -0.00573264
Al      12.69320214       8.51807128      16.97426734        3       0.00204341      -0.00409913      -0.00393302
Al      15.56470276       8.50530881      17.01205486        3      -0.01178485       0.00485762      -0.03294869
Al       1.29891527       1.89547104      19.19811441        2       0.00363765      -0.00150857       0.01454154
Al       4.17688724       1.84625526      19.22401389        2      -0.00940335       0.00325440       0.02241899
Al       7.04848192       1.85969757      19.20689398        2      -0.00409981       0.00233898       0.02031755
Al       9.91781656       1.84950731      19.23578625        2      -0.00100383      -0.00065408       0.00541505
Al       2.74139989       4.38766776      19.25114953        2       0.00022834      -0.00181056      -0.00480528
Al       5.60586039       4.37602233      19.27971112        2      -0.00929580       0.00192944       0.01390741
Al       8.43896635       4.36652267      19.31236297        2       0.01354734      -0.00728361      -0.01026058
Al      11.33494092       4.37050169      19.20913183        2      -0.00096150      -0.00063366       0.00775543
Al       4.17292379       6.86079680      19.29697401        2      -0.00076809       0.00089969       0.00481683
Al       7.04973561       6.81345357      19.36975245        2       0.00668497       0.01143200      -0.00182307
Al       9.89548640       6.84380673      19.25526002        2      -0.00159366       0.00335367       0.01037694
Al      12.76979108       6.83973352      19.23981263        2      -0.00332813       0.00685272       0.00453056
Al       5.59252520       9.33193482      19.28067094        2       0.00059868       0.00150119       0.00475119
Al       8.50018729       9.29213771      19.27394816        2       0.00036745       0.00067107       0.00991364
Al      11.32680269       9.30858080      19.23583047        2      -0.00419626       0.00275807       0.00864372
Al      14.21402593       9.33375916      19.27927187        2       0.00047336       0.00291473       0.00113782
Al       1.44757045       0.26175822      21.44537757        1      -0.01125721       0.00006626       0.04258934
Al       4.18449622       0.27506420      22.03048532        1       0.00479414       0.00527275      -0.00560898
Al       7.04116506       0.23185036      21.53418200        1       0.00795828      -0.00240114      -0.01592703
Al      10.21857842       0.18427661      22.05511303        1      -0.00626443       0.00031277      -0.01865924
Al       2.84757601       2.76528896      21.51606218        1      -0.01352959      -0.00659291       0.00599489
Al       5.69864156       2.70235739      21.47928720        1      -0.01451846       0.00930055       0.07448725
Al       8.62468046       2.56560250      21.51351942        1      -0.02896745       0.01342539       0.00878085
Al      11.41220734       2.78022258      21.53291140        1       0.00817941      -0.01435295      -0.03540303
Al       4.29697315       5.25419422      21.65611499        1      -0.00381746      -0.00514191       0.00582672
Al       7.28645219       5.02113854      21.81123304        1      -0.05046694       0.02223870      -0.03917998
Al      10.06675291       5.20873217      21.55863282        1      -0.02707866      -0.00890420      -0.00450246
Al      12.85272077       5.19973819      21.59767250        1       0.00793253       0.00768723      -0.00630908
Al       5.69484982       7.65841904      21.64550476        1       0.00380251       0.00015823      -0.01582398
Al       8.46786243       7.61137832      22.01429872        1      -0.00586350       0.00234960      -0.00278626
Al      11.42286104       7.65074970      21.56670484        1      -0.01119956       0.01773622       0.00162047
Al      14.26722010       7.73657980      21.63657236        1       0.00272775       0.00544041      -0.00324359
C        0.56078425       3.57608104      25.04025422        0      -0.06350102      -0.00949131      -0.01747741
C        0.48312296       2.23876596      24.64709826        0       0.10186062      -0.06214732      -0.03781978
C       -0.79258403       1.67209318      24.51447015        0       0.02898303       0.13211119       0.03858845
N       -1.17926697       0.40328247      24.09198796        0      -0.17113680       0.01816711       0.03032141
N       -2.51612267       0.38646837      24.46519893        0      -0.17418085       0.20605244       0.02271184
N       -3.05177361       1.59216545      24.73166518        0       0.19592585      -0.35954246      -0.01823127
C       -1.96846184       2.41405489      24.83906028        0       0.02687692      -0.19615851      -0.02159396
C       -1.87980230       3.76639243      25.22170064        0       0.13637933       0.14100011      -0.01234247
C       -0.61294533       4.33257465      25.30594416        0       0.00820002      -0.11436204       0.01318730
H        1.54158373       4.05233575      25.10830705        0      -0.00924922       0.00571557      -0.00178779
H        1.37438187       1.63315099      24.44127928        0      -0.07005063       0.10147092       0.01559262
H       -3.12017934      -0.39179238      24.18381601        0       0.00998450       0.00893871      -0.00526958
H       -2.78286541       4.35324573      25.38929545        0      -0.00145828      -0.00886749       0.00872846
H       -0.51033298       5.38075000      25.58634433        0       0.01066444       0.03773044      -0.00975057
