110
Lattice="11.45512985522207 0.0 0.0 5.727564927611035 9.92043345827187 0.0 0.0 0.0 31.691342951089922" Properties=species:S:1:pos:R:3:tags:I:1:forces:R:3 energy=-461.77337646484375 free_energy=-461.77337646484375 stress="0.0035374939907342196 1.6954727470874786e-06 -5.476176738739014e-07 1.6954727470874786e-06 0.0036100372672080994 5.336478352546692e-07 -5.476176738739014e-07 5.336478352546692e-07 0.0035803718492388725" pbc="T T F"
Al       2.29444664       0.71989719      10.03483373        6      -0.00047025      -0.00011049      -0.00008649
Al       5.15758347       0.72275883      10.02301481        6      -0.00057858      -0.00002169       0.00016883
Al       8.02454913       0.71891650      10.02468402        6      -0.00037198       0.00008299      -0.00007975
Al      10.88949008       0.72141203      10.02785651        6      -0.00043880       0.00000190      -0.00020801
Al       3.72505293       3.20204124      10.03182325        6      -0.00045672      -0.00008042      -0.00036410
Al       6.58889278       3.19712572      10.02962540        6      -0.00035424      -0.00001710      -0.00073859
Al       9.45487460       3.20024046      10.02284950        6      -0.00038353      -0.00004617      -0.00046252
Al      12.31926743       3.20317041      10.02742930        6      -0.00051400      -0.00014928      -0.00019544
Al       5.15417665       5.67765649      10.03537322        6      -0.00023913      -0.00016803      -0.00081709
Al       8.01397201       5.67846312      10.03173625        6      -0.00027684      -0.00009980      -0.00067187
Al      10.87986414       5.68311998      10.02432129        6      -0.00045844      -0.00002404      -0.00007848
Al      13.74576906       5.68693581      10.02682204        6      -0.00049063      -0.00022251      -0.00032551
Al       6.58579100       8.15880696      10.02852582        6      -0.00029376      -0.00002214      -0.00007712
Al       9.44881369       8.16121356      10.02382647        6      -0.00041752      -0.00001468       0.00023440
Al      12.31228862       8.16640165      10.01589301        6      -0.00041882      -0.00005664       0.00020909
Al      15.18247163       8.16041642      10.03301975        6      -0.00035216      -0.00004487      -0.00060248
Al       0.89884173       1.52958486      12.38943555        5      -0.00068340      -0.00019974       0.00068041
Al       3.76238592       1.53094612      12.39281509        5      -0.00026119      -0.00072268      -0.00074387
Al       6.62407319       1.53108732      12.38338754        5      -0.00031780      -0.00031083       0.00083027
Al       9.48865742       1.53063854      12.38095013        5      -0.00008187       0.00006048       0.00020255
Al       2.33093904       4.00975021      12.38711204        5      -0.00068963      -0.00016736       0.00024399
Al       5.19561029       4.00921601      12.38923215        5      -0.00069395      -0.00020839       0.00040666
Al       8.05737702       4.00990893      12.38224611        5      -0.00060459      -0.00013598       0.00090914
Al      10.92017433       4.01009175      12.38052430        5      -0.00077988      -0.00023313       0.00038206
Al       3.76222216       6.49061571      12.38679543        5      -0.00048966      -0.00021588       0.00057144
Al       6.62667434       6.49044937      12.39125988        5      -0.00036490      -0.00010703       0.00060096
Al       9.48602717       6.49124203      12.38540853        5      -0.00038469       0.00026950      -0.00021526
Al      12.34945851       6.49278269      12.38119342        5      -0.00054955      -0.00036524      -0.00010153
Al       5.19616315       8.97049077      12.38715354        5      -0.00057586       0.00001539       0.00096651
Al       8.05810085       8.97032630      12.39265626        5      -0.00092574       0.00022851      -0.00016691
Al      10.91778895       8.97294194      12.38281145        5      -0.00025422      -0.00015745       0.00040600
Al      13.78264259       8.97194328      12.37964199        5      -0.00088117       0.00051825       0.00131020
Al       0.90770695      -0.13883009      14.67617023        4      -0.00040246       0.00050520       0.00074292
Al       3.76829308      -0.12982862      14.67611770        4      -0.00055316      -0.00018338      -0.00016421
Al       6.63103037      -0.12783338      14.65862529        4      -0.00041778       0.00009812       0.00035273
Al       9.50053705      -0.13175910      14.65799704        4      -0.00086999       0.00036717       0.00075930
Al       2.34045549       2.34019131      14.67390450        4      -0.00031940       0.00057180       0.00012579
Al       5.20664016       2.34865594      14.67379429        4      -0.00068042       0.00016378      -0.00036658
Al       8.06619045       2.34977915      14.66162384        4      -0.00086593       0.00027092      -0.00016881
Al      10.92774197       2.34462626      14.65997120        4      -0.00057355       0.00027394       0.00095863
Al       3.77729240       4.82304319      14.66516983        4      -0.00079926       0.00014138       0.00027449
Al       6.64014000       4.82423863      14.66891617        4      -0.00068154       0.00049436       0.00055294
Al       9.49456187       4.82640142      14.66016863        4      -0.00055171       0.00026108       0.00021865
Al      12.36074850       4.82330206      14.65578591        4      -0.00065408       0.00022814      -0.00004559
Al       5.20960925       7.30739615      14.66846046        4      -0.00083030      -0.00025404       0.00035134
Al       8.06667604       7.30832597      14.67570818        4      -0.00082393       0.00003231       0.00040660
Al      10.92415613       7.31358843      14.65792322        4      -0.00052842      -0.00014351       0.00038970
Al      13.79602330       7.31072503      14.65397336        4      -0.00093737      -0.00014552       0.00041769
Al       2.32518471       0.67924164      16.97866110        3       0.00063712      -0.00041547      -0.00023647
Al       5.19257510       0.69416032      16.96450540        3      -0.00103325       0.00071944      -0.00101451
Al       8.05359325       0.70273822      16.94157628        3      -0.00084804       0.00031649       0.00034658
Al      10.92066399       0.69018017      16.95660275        3      -0.00021159      -0.00014600      -0.00007410
Al       3.77700235       3.16042757      16.96705959        3      -0.00081309      -0.00049212      -0.00048596
Al       6.63030942       3.17487470      16.97465195        3      -0.00050069      -0.00016307       0.00032726
Al       9.47904763       3.17049509      16.95368328        3      -0.00017071       0.00070725       0.00136467
Al      12.35254703       3.15278763      16.94452368        3      -0.00052220       0.00112679       0.00062825
Al       5.20787817       5.63877058      16.95939043        3      -0.00023052       0.00014511       0.00191617
Al       8.05397571       5.64277717      16.97002699        3      -0.00088970       0.00016076       0.00199961
Al      10.91121604       5.64834706      16.93417496        3      -0.00021059       0.00016419       0.00064390
Al      13.79004399       5.64201746      16.92919515        3       0.00029879      -0.00012327       0.00090176
Al       6.62694038       8.12155446      16.98005468        3       0.00007569       0.00002344       0.00242499
Al       9.47663757       8.13117970      16.96858619        3      -0.00042527      -0.00011947      -0.00003598
Al      12.34742706       8.13409384      16.93459782        3      -0.00043701      -0.00014753      -0.00031372
Al      15.22548049       8.13505163      16.93958784        3      -0.00025784      -0.00064841      -0.00002417
Al       0.88133221       1.52663566      19.23147463        2       0.00007032      -0.00005467      -0.00254191
Al       3.75356834       1.52099525      19.23321626        2       0.00083545       0.00065553      -0.00131697
Al       6.61929567       1.54164715      19.22871675        2      -0.00055167      -0.00150804       0.00025620
Al       9.46893359       1.54407253      19.19978778        2       0.00084886      -0.00072481      -0.00095695
Al       2.32108296       4.00512976      19.17001946        2      -0.00002258      -0.00039430      -0.00051528
Al       5.20524934       4.00980632      19.25892638        2      -0.00035409      -0.00072522      -0.00109584
Al       8.04459301       4.01150570      19.27810759        2       0.00000991       0.00051907      -0.00019937
Al      10.92007855       4.01714468      19.17766070        2      -0.00014682       0.00014615       0.00037660
Al       3.76065782       6.49265819      19.16463570        2       0.00071482      -0.00155630       0.00054996
Al       6.61990589       6.46395680      19.26262160        2      -0.00071519      -0.00063910      -0.00230667
Al       9.47646362       6.47844266      19.20763024        2       0.00077340       0.00020690       0.00023177
Al      12.34699050       6.48352135      19.16223362        2      -0.00000429       0.00026302       0.00151453
Al       5.18795072       8.98750283      19.21541499        2       0.00008414      -0.00101365      -0.00080576
Al       8.03882603       8.97533758      19.28492840        2       0.00097918       0.00071478       0.00091370
Al      10.91416431       8.97127452      19.19218758        2       0.00050714       0.00054590      -0.00105198
Al      13.77602362       8.98425800      19.15378599        2      -0.00028113      -0.00076442      -0.00023427
Al       0.78175004      -0.09322585      21.79966623        1       0.00069212      -0.00208480      -0.00049356
Al       3.68249227      -0.08627029      21.64386708        1       0.00099017      -0.00015510      -0.00049665
Al       6.57277177      -0.10070561      21.53101932        1      -0.00052745      -0.00012126      -0.00251357
Al       9.41041115      -0.07483851      21.51889982        1       0.00045024      -0.00009585       0.00015206
Al       2.25175390       2.39239891      21.54766111        1       0.00099550       0.00122416      -0.00239160
Al       5.13040397       2.38417055      21.60431404        1       0.00190659      -0.00103008       0.00075028
Al       7.98920168       2.42195097      21.63022692        1       0.00154889      -0.00120023      -0.00155822
Al      10.86941431       2.41902335      21.52456936        1       0.00147622      -0.00144194      -0.00027667
Al       3.70121362       4.87092439      21.45368971        1      -0.00019736      -0.00068560       0.00029807
Al       6.52107567       4.88726876      21.82966188        1       0.00289341      -0.00242093      -0.00095024
Al       9.48475012       4.87204052      21.55232012        1       0.00137728      -0.00014899       0.00348160
Al      12.34348640       4.87688799      21.52039617        1      -0.00170335       0.00091374       0.00191371
Al       5.14906196       7.35906230      21.52031606        1      -0.00101451      -0.00202126       0.00169305
Al       8.04303259       7.33600333      21.57600631        1       0.00030371       0.00098827       0.00082824
Al      10.95001432       7.32163875      21.48972009        1      -0.00038104       0.00037418       0.00095663
Al      13.76640293       7.34369953      21.42002195        1       0.00021506      -0.00211398      -0.00205940
C        2.39094213       6.46326663      24.68401197        0      -0.00514985       0.00751872       0.00175750
C        2.37783431       5.08010312      24.76358751        0      -0.00029808      -0.01046680       0.00469596
C        1.13801606       4.45126558      25.03258848        0       0.02941577       0.00621127      -0.00519433
N        0.83101368       3.13979487      25.18480451        0      -0.00778114      -0.00296846       0.00191409
N       -0.49151106       3.16517005      25.41690360        0      -0.00449380      -0.00883369       0.00054351
N       -1.09886618       4.36215496      25.38599243        0       0.00613984       0.00148106      -0.00495853
C       -0.07383032       5.22280191      25.16240843        0      -0.01501902       0.03021966      -0.00152468
C       -0.04073996       6.63048363      25.02039766        0      -0.00251782      -0.00472786      -0.00073204
C        1.18934836       7.23097656      24.80471155        0      -0.00090286       0.00578291       0.00095043
H        3.33264704       6.98283701      24.49052429        0       0.00978220       0.00792934      -0.00288024
H        3.27489008       4.47717640      24.60684902        0      -0.00213160       0.00498726       0.00184759
H       -1.03154823       2.30015441      25.43565506        0      -0.00479691      -0.01127247      -0.00165597
H       -0.96580771       7.20904284      25.05544577        0       0.01517003      -0.00802866      -0.00132101
H        1.25056957       8.31507383      24.68080119        0       0.00188822      -0.00455652      -0.00095061
