110
Lattice="11.45512985522207 0.0 0.0 5.727564927611035 9.92043345827187 0.0 0.0 0.0 31.691342951089922" Properties=species:S:1:pos:R:3:tags:I:1:forces:R:3 energy=-462.0948791503906 free_energy=-462.0948791503906 stress="0.005525384563952684 2.8102658689022064e-06 -1.0523945093154907e-07 2.8102658689022064e-06 0.005560969468206167 -4.544854164123535e-07 -1.0523945093154907e-07 -4.544854164123535e-07 0.0054295863956213" pbc="T T F"
Al       2.36553453       1.19993452       9.99672137        6       0.00042445       0.00022832       0.00122382
Al       5.22221599       1.19681506      10.00720838        6       0.00160628       0.00031560       0.00054817
Al       8.07767967       1.21852906      10.00238294        6       0.00172295      -0.00160628      -0.00099364
Al      10.93612679       1.23096388       9.95284131        6       0.00236171      -0.00450405       0.00159530
Al       3.75789630       3.68089645       9.98953414        6       0.00298959      -0.00011753       0.00086640
Al       6.61083685       3.69709663       9.94888166        6       0.00257517      -0.00010792       0.00381107
Al       9.46902600       3.70958107       9.91721841        6       0.00263803      -0.00097869       0.00472307
Al      12.34370384       3.68189547       9.99576977        6       0.00400827      -0.00112585      -0.00019426
Al       5.14414364       6.17675254       9.89304376        6       0.00387632      -0.00004237       0.00523096
Al       8.00064204       6.18546605       9.87760588        6       0.00502628      -0.00134971       0.00722395
Al      10.87758412       6.16237012       9.95426419        6       0.00416758       0.00008224       0.00396879
Al      13.74456063       6.15988239       9.95087391        6       0.00423235       0.00025802       0.00288287
Al       6.60246095       8.66153588       9.95446408        6       0.00251074       0.00024465       0.00424697
Al       9.47419144       8.63770579       9.98849139        6       0.00301225      -0.00007606       0.00202407
Al      12.33970865       8.64141018       9.96888761        6       0.00450069      -0.00057459       0.00012594
Al      15.20418575       8.65452943       9.96768426        6       0.00216201       0.00052503       0.00336087
Al       1.03190704       1.97928256      12.36374526        5      -0.00054388       0.01408718       0.00060798
Al       3.89689432       1.98942427      12.36402803        5       0.00563009       0.00366484       0.00221509
Al       6.76641364       1.98855218      12.36518313        5       0.00107987       0.00992198      -0.01191272
Al       9.62905494       1.99313505      12.35250184        5       0.00170030       0.01136947      -0.01361477
Al       2.45731007       4.47555040      12.34609128        5       0.00522468      -0.00224884       0.00622357
Al       5.32432941       4.48187614      12.32959371        5       0.00459415      -0.00028761       0.00760350
Al       8.18371165       4.48459770      12.33015038        5       0.01039853      -0.00524846      -0.00739506
Al      11.04757177       4.47250465      12.35766239        5      -0.00378233      -0.00000581      -0.00280152
Al       3.89543346       6.94948251      12.33048465        5       0.01069922       0.00270112       0.00215577
Al       6.76293491       6.94853309      12.32662473        5       0.00337708       0.00448963       0.00064301
Al       9.62939397       6.94730642      12.37112749        5      -0.01490779      -0.00023533      -0.03248176
Al      12.49347120       6.94767611      12.35447186        5      -0.00367736       0.00290437      -0.01965168
Al       5.33404676       9.43223740      12.35838725        5       0.00345954      -0.00924797      -0.02123183
Al       8.19666447       9.43406399      12.36680392        5       0.00193875      -0.01595144      -0.00808373
Al      11.06035515       9.42128236      12.37049962        5       0.00453490       0.00638567      -0.02654554
Al      13.92111245       9.42615914      12.35487169        5       0.00597535       0.00354097      -0.00272268
Al       1.12496791       0.29615462      14.63942931        4       0.00270515      -0.00256492       0.02120193
Al       3.99757932       0.29729496      14.65000002        4      -0.00151963       0.00062922       0.00640611
Al       6.85375513       0.29007106      14.65071398        4       0.00570022       0.00531263       0.00275199
Al       9.71730204       0.31518899      14.62030844        4       0.00039564      -0.00951166       0.02329999
Al       2.56307150       2.79194587      14.65232924        4      -0.00006842      -0.00519956       0.00316908
Al       5.42346116       2.78562161      14.63266810        4       0.00111721       0.00153573       0.01066088
Al       8.27927365       2.80546857      14.63852791        4       0.00615280      -0.01238193       0.00972034
Al      11.14923541       2.78831211      14.66663265        4       0.00000287      -0.00141253      -0.00001319
Al       3.99257079       5.26684947      14.63721340        4       0.00146940      -0.00064323       0.00467198
Al       6.85431039       5.26993551      14.65442555        4      -0.00248502      -0.00455663      -0.01790697
Al       9.70469718       5.25532332      14.66832206        4       0.00331283       0.00184350       0.00255432
Al      12.56744168       5.25838613      14.62527872        4       0.00693485       0.00164544       0.01867124
Al       5.42465250       7.72870734      14.64484817        4      -0.00237550       0.00766525       0.00649123
Al       8.28149078       7.72880349      14.67057389        4       0.00129761       0.00640461      -0.00226404
Al      11.14597751       7.74086119      14.63793212        4       0.00324005      -0.00252751       0.01850503
Al      14.00543965       7.73257900      14.63247143        4       0.01207304       0.00478935       0.01748980
Al       2.68686730       1.05773431      16.95534088        3      -0.00459207       0.00165036      -0.00520782
Al       5.55104637       1.07421740      16.94840638        3       0.00033281       0.00355353      -0.01159871
Al       8.42079055       1.07833376      16.94276911        3       0.00415051      -0.00025445      -0.02103505
Al      11.27638782       1.07876838      16.95207640        3       0.00238433      -0.01081318      -0.01464685
Al       4.11094011       3.54595052      16.95703623        3       0.00072611       0.00981134       0.00056352
Al       6.96204184       3.58197756      16.95299153        3       0.00754328      -0.01467787      -0.00142053
Al       9.82392855       3.56705691      16.99044145        3      -0.00367296      -0.00032573      -0.01856494
Al      12.69565257       3.55810147      16.95392333        3       0.00866008       0.00938693      -0.01281890
Al       5.54702515       6.03951621      16.97144461        3      -0.01366317       0.00588047       0.01030891
Al       8.38314467       6.03528679      16.98850404        3       0.02012119       0.00911542       0.00885002
Al      11.27324421       6.04254308      16.96220562        3      -0.00193100       0.00556238      -0.00968067
Al      14.14433941       6.03678681      16.95101012        3       0.00070979       0.00508792       0.00003171
Al       6.97752679       8.49353895      16.98988501        3       0.00462598       0.01134145       0.00280157
Al       9.84751160       8.51353942      16.96913717        3       0.00140843      -0.00839646      -0.01449412
Al      12.72148888       8.53091346      16.96262222        3       0.00224176      -0.00952411      -0.00646414
Al      15.59749690       8.51407759      16.99145809        3      -0.01507690       0.00281165      -0.03007604
Al       1.32159168       1.91004063      19.19524718        2       0.00473435      -0.00448411       0.01560078
Al       4.20836676       1.86917198      19.21528559        2      -0.00892276       0.00461234       0.02035321
Al       7.07848355       1.88248624      19.19040115        2      -0.00370452       0.00294234       0.02193609
Al       9.94742672       1.86486293      19.23908294        2      -0.00079088      -0.00143023       0.00011109
Al       2.76075382       4.40215121      19.24225203        2       0.00327642      -0.00077210      -0.00859602
Al       5.62613295       4.39833526      19.26073114        2      -0.01028025       0.00332215       0.01914832
Al       8.46106872       4.38717185      19.29735344        2       0.01233766      -0.00744471      -0.01522216
Al      11.34916265       4.38397848      19.21269281        2       0.00082155      -0.00106194       0.00158094
Al       4.20685091       6.86803706      19.29845944        2       0.00077437       0.00119748       0.00031265
Al       7.07497739       6.82892175      19.35586200        2       0.00632855       0.01238521      -0.00956534
Al       9.93155225       6.86284309      19.26195997        2      -0.00172683       0.00375111       0.00271404
Al      12.80011316       6.85782367      19.23420304        2      -0.00351969       0.00606363       0.00164313
Al       5.63526810       9.35078308      19.26785864        2      -0.00174390      -0.00214405       0.00644826
Al       8.54021540       9.30830902      19.27438738        2      -0.00472861       0.00120318       0.00385862
Al      11.36573410       9.32714445      19.23630751        2      -0.00167671       0.00165710       0.00338263
Al      14.25569962       9.35116188      19.27301756        2      -0.00029622       0.00184578      -0.00198847
Al       1.47471145       0.26881999      21.45832806        1      -0.01647629       0.00058145       0.03825534
Al       4.24379335       0.29682499      22.02890764        1      -0.00041539       0.00743886      -0.00014671
Al       7.09872185       0.26297307      21.52029089        1       0.00615847      -0.00180635      -0.01831808
Al      10.22779704       0.21689351      22.07194252        1      -0.00642719      -0.00178489      -0.02020995
Al       2.86157549       2.77482037      21.50866339        1      -0.00657707      -0.00545759       0.00649808
Al       5.72980376       2.74392577      21.46638547        1      -0.01854604       0.01319971       0.07024216
Al       8.65181071       2.60128218      21.50554218        1      -0.03025552       0.01869728       0.01200727
Al      11.43656726       2.78722186      21.54096792        1       0.01040684      -0.01413984      -0.03899233
Al       4.27957531       5.28375206      21.78187337        1      -0.00645480      -0.00304415       0.01616799
Al       7.30946795       5.05190621      21.78123489        1      -0.05012009       0.02417541      -0.03241468
Al      10.09897814       5.23501454      21.57391046        1      -0.02609541      -0.01184050      -0.00722828
Al      12.87898929       5.21078631      21.57448676        1       0.00788783       0.00497284      -0.00179566
Al       5.72984465       7.67062864      21.67228130        1      -0.00111672       0.00579018      -0.00901348
Al       8.53100314       7.62914651      21.95415830        1      -0.01017461       0.00070569       0.00994949
Al      11.50543357       7.66259303      21.60453948        1      -0.01454654       0.01607535       0.00179922
Al      14.32617894       7.76065881      21.62716886        1      -0.00069335       0.00685626      -0.00520364
C        0.41665204       3.60578250      25.14844526        0      -0.06468834      -0.03765092      -0.02322593
C        0.37093853       2.28420707      24.69984047        0       0.12902306      -0.06217814      -0.03552392
C       -0.88919916       1.68227502      24.57556884        0       0.01550974       0.13855350       0.04049920
N       -1.25026864       0.41945855      24.11757148        0      -0.18134606       0.02458942       0.03355043
N       -2.58064315       0.35495891      24.50398766        0      -0.18929346       0.22726218       0.02557631
N       -3.14138848       1.53200446      24.82959942        0       0.22544956      -0.39679387      -0.02779055
C       -2.07820819       2.37756389      24.95121514        0       0.01725117      -0.20094395      -0.01633807
C       -2.02164266       3.70743320      25.40995637        0       0.16632235       0.14202932      -0.01579989
C       -0.77146181       4.30877075      25.48774164        0       0.00367285      -0.10089123       0.01231193
H        1.38336035       4.10913312      25.21622131        0      -0.00279995       0.01062272      -0.00168809
H        1.27549350       1.71262662      24.45411687        0      -0.08670194       0.11882498       0.02444120
H       -3.16372551      -0.43137383      24.20159972        0       0.01055128       0.01393637      -0.00544818
H       -2.93441040       4.24655548      25.66064449        0      -0.01855846      -0.00101160       0.00538509
H       -0.69187862       5.34272962      25.82605954        0       0.01273565       0.01335351      -0.01486760
