110
Lattice="11.45512985522207 0.0 0.0 5.727564927611035 9.92043345827187 0.0 0.0 0.0 31.691342951089922" Properties=species:S:1:pos:R:3:tags:I:1:forces:R:3 energy=-461.87835693359375 free_energy=-461.87835693359375 stress="0.004764922428876162 2.987682819366455e-06 -2.169981598854065e-07 2.987682819366455e-06 0.004806098528206348 -1.2032687664031982e-06 -2.169981598854065e-07 -1.2032687664031982e-06 0.004580702167004347" pbc="T T F"
Al       2.31940089       1.22877777      10.02815007        6       0.00143568      -0.00040462      -0.00044209
Al       5.18226878       1.23272686      10.00650834        6       0.00287821      -0.00087554      -0.00059674
Al       8.03771545       1.24051154      10.00904720        6       0.00330012      -0.00072522      -0.00077837
Al      10.89366357       1.24780620       9.98237727        6       0.00329308      -0.00201530       0.00077107
Al       3.73731372       3.70713379      10.00090216        6       0.00339262      -0.00053453      -0.00048227
Al       6.59997054       3.72547841       9.99049037        6       0.00313765      -0.00118380       0.00088998
Al       9.46096320       3.73471674       9.98182726        6       0.00245298      -0.00171170       0.00149765
Al      12.32575012       3.71036308      10.01924081        6       0.00325078      -0.00141492      -0.00093547
Al       5.13843745       6.19706859       9.96394443        6       0.00437921      -0.00083332       0.00193328
Al       7.99947198       6.20978222       9.96621982        6       0.00436311      -0.00112317       0.00272598
Al      10.87040956       6.19726198      10.00063750        6       0.00357887      -0.00069414       0.00138991
Al      13.73867341       6.18260391      10.00236223        6       0.00374831      -0.00021547      -0.00029689
Al       6.57207781       8.68471435       9.97513102        6       0.00408366      -0.00096524       0.00192260
Al       9.44577917       8.68188809       9.96616537        6       0.00322567      -0.00131442       0.00261827
Al      12.31576717       8.67023327       9.99418949        6       0.00351123      -0.00093126      -0.00003674
Al      15.17444526       8.67294612      10.00235302        6       0.00360805      -0.00059844      -0.00014943
Al       1.00843497       1.99161232      12.38960007        5      -0.00099878       0.01455389      -0.00703560
Al       3.87577437       1.99979182      12.37503947        5       0.00516465       0.00183702       0.00140029
Al       6.74274502       1.99689828      12.37923238        5       0.00317197       0.01090493      -0.01108844
Al       9.60614507       2.00450146      12.37657048        5       0.00196074       0.00783417      -0.01103263
Al       2.44152470       4.48153866      12.37180815        5       0.00510089      -0.00048586       0.00126850
Al       5.30433742       4.48813399      12.36240903        5       0.00453103      -0.00013535       0.00679252
Al       8.16561033       4.49385486      12.36777262        5       0.00652445      -0.00293157      -0.00082332
Al      11.03104120       4.48667618      12.38399521        5      -0.00440026      -0.00066213      -0.00159562
Al       3.87509036       6.96104219      12.36714342        5       0.00709986       0.00206397       0.00082559
Al       6.73819210       6.96423207      12.36618425        5       0.00265160       0.00359426       0.00184278
Al       9.60225661       6.96591573      12.38892734        5      -0.00722850       0.00235303      -0.02124871
Al      12.46870058       6.96386666      12.37563241        5      -0.00356881       0.00241143      -0.01176419
Al       5.31175166       9.44380124      12.37800257        5       0.00070230      -0.00677055      -0.01659920
Al       8.17209376       9.44815184      12.37628547        5       0.00947618      -0.02094601      -0.01359092
Al      11.03713742       9.44047444      12.37735935        5      -0.00020444      -0.00167902      -0.02251306
Al      13.89887234       9.44291938      12.37269053        5       0.00493755       0.00106858      -0.00249030
Al       1.10972986       0.29601027      14.65535957        4       0.00120150      -0.00316344       0.02226473
Al       3.98164803       0.29647769      14.66041516        4      -0.00392282       0.00084376       0.00495751
Al       6.83467220       0.28860309      14.65910504        4       0.00567872       0.00732371       0.00506614
Al       9.69614759       0.31310423      14.64279514        4       0.00338214      -0.00970603       0.02251038
Al       2.55142510       2.78771918      14.66300376        4      -0.00060627      -0.00293530       0.00430062
Al       5.40889671       2.77977493      14.64822592        4       0.00081085       0.00264400       0.01262436
Al       8.26512829       2.80197040      14.65785759        4       0.00534471      -0.01031304       0.01042646
Al      11.13668340       2.79005349      14.68022298        4      -0.00204000      -0.00073438       0.00216151
Al       3.97885190       5.26364461      14.66710485        4       0.00090595       0.00015327       0.00295693
Al       6.83432336       5.26778923      14.67746080        4      -0.00094184      -0.00255996      -0.01815018
Al       9.68944594       5.26419312      14.69014249        4       0.00574643      -0.00042177      -0.00539740
Al      12.55777554       5.26191779      14.64140776        4       0.00419758       0.00176950       0.02230889
Al       5.40193029       7.73303332      14.66951971        4      -0.00187455       0.00795372       0.00644027
Al       8.25891727       7.73153191      14.69023547        4       0.00226434       0.00901119      -0.00674441
Al      11.12655831       7.74613632      14.65460767        4       0.00312092      -0.00375248       0.01383709
Al      13.98255855       7.73492666      14.64818229        4       0.01551574       0.00542122       0.02189135
Al       2.66862170       1.05235413      16.96097816        3      -0.00347736       0.00043727      -0.00403007
Al       5.53513135       1.06436052      16.95845737        3       0.00020179       0.00624314      -0.01528736
Al       8.40328654       1.07075624      16.95420034        3       0.00087387       0.00137531      -0.02035698
Al      11.26034483       1.06966671      16.96454712        3       0.00244359      -0.00867327      -0.01691167
Al       4.09948552       3.53669155      16.96703090        3       0.00002228       0.01169249      -0.00061104
Al       6.95339573       3.57574923      16.96595675        3       0.00212892      -0.01777732      -0.00334855
Al       9.81205427       3.55923762      17.00241988        3      -0.00344084       0.00172400      -0.02966064
Al      12.68620551       3.55024018      16.95823611        3       0.00705048       0.00979137      -0.01303902
Al       5.53153156       6.03428917      16.98857275        3      -0.01843351       0.00526437       0.00655987
Al       8.36237626       6.02787470      16.99934375        3       0.02356195       0.01261312       0.01054791
Al      11.25610907       6.04130135      16.96829267        3      -0.00205212       0.00261255      -0.00980969
Al      14.12448348       6.03300025      16.96569895        3       0.00222368       0.00377824      -0.00398109
Al       6.95321538       8.48762525      17.01005965        3       0.00755606       0.01523141      -0.00557969
Al       9.82560948       8.50712888      16.97123793        3      -0.00015398      -0.00477049      -0.00644351
Al      12.70088650       8.52119589      16.96958920        3       0.00228338      -0.00482799      -0.00532403
Al      15.57465158       8.50982196      17.00277141        3      -0.01417983       0.00286628      -0.03246486
Al       1.30648638       1.90128824      19.20118181        2       0.00360335      -0.00051765       0.01325054
Al       4.18647571       1.85769093      19.21836115        2      -0.00927730       0.00183631       0.02707478
Al       7.05907082       1.87022217      19.20002752        2      -0.00397376       0.00261169       0.02291672
Al       9.92862264       1.85712264      19.23455341        2      -0.00192225      -0.00061495       0.00652003
Al       2.75160833       4.39221644      19.24324511        2       0.00064562      -0.00130022      -0.00365807
Al       5.61561895       4.38570196      19.26913772        2      -0.00916554      -0.00028195       0.01628003
Al       8.45185763       4.37728155      19.29882843        2       0.01284771      -0.00770180      -0.01045270
Al      11.34341667       4.37941500      19.20569592        2      -0.00083705      -0.00158202       0.00822268
Al       4.18588960       6.86568056      19.29325530        2      -0.00119658       0.00162666       0.00492607
Al       7.05666430       6.82283823      19.36385629        2       0.00745943       0.01167210      -0.00446041
Al       9.90862924       6.85541468      19.25830738        2      -0.00145181       0.00302563       0.01027097
Al      12.78297578       6.84872424      19.23810335        2      -0.00466716       0.00698963       0.00547383
Al       5.60848814       9.33601691      19.28145936        2      -0.00072566       0.00175742       0.00448681
Al       8.51748277       9.30012843      19.27727565        2      -0.00171781       0.00006223       0.00964524
Al      11.34505333       9.31643424      19.23602618        2      -0.00521570       0.00197580       0.00904855
Al      14.23214708       9.34147614      19.27163727        2      -0.00121879       0.00207973       0.00340236
Al       1.45757020       0.26841012      21.44701402        1      -0.01293081       0.00058182       0.04572414
Al       4.20018822       0.28770379      22.04182925        1       0.00623442       0.00558414      -0.00890802
Al       7.06505124       0.24232761      21.52544042        1       0.00562893      -0.00201507      -0.01783255
Al      10.21941185       0.19979221      22.03980537        1      -0.00683230      -0.00046537      -0.01780961
Al       2.85168047       2.77142414      21.51076633        1      -0.01251508      -0.00751097       0.00796603
Al       5.70959306       2.71372836      21.47260051        1      -0.01614294       0.00950298       0.08070738
Al       8.63050777       2.58899320      21.50749834        1      -0.03202063       0.01452557       0.01037610
Al      11.41502469       2.79174230      21.53857278        1       0.01005953      -0.01394453      -0.03758213
Al       4.30765342       5.26356427      21.65372015        1      -0.00351734      -0.00656022       0.00675583
Al       7.28157703       5.04611577      21.77324001        1      -0.05289381       0.02193208      -0.03749843
Al      10.07101294       5.22115246      21.55695005        1      -0.02551882      -0.00960143      -0.00425920
Al      12.86638375       5.20401758      21.58305479        1       0.00776795       0.00716824      -0.00391647
Al       5.71087892       7.66652339      21.65894680        1       0.00368593       0.00190719      -0.01754805
Al       8.49239330       7.62595167      22.00072725        1      -0.00621597       0.00191945      -0.00124078
Al      11.45687963       7.65288490      21.58833444        1      -0.01283168       0.01805539      -0.00027954
Al      14.29665750       7.74527660      21.62984442        1       0.00009797       0.00473379      -0.00371252
C        0.55758907       3.55103257      25.08877153        0      -0.06149575      -0.01340530      -0.01567548
C        0.47184444       2.22398511      24.66486627        0       0.11080676      -0.06567622      -0.04010721
C       -0.80685150       1.66614708      24.52558247        0       0.02456732       0.13443366       0.03994932
N       -1.20151879       0.40784669      24.08241779        0      -0.17730579       0.01637172       0.03276412
N       -2.53699054       0.39127208      24.45826142        0      -0.17879148       0.20677237       0.02351173
N       -3.06625364       1.59329849      24.74940984        0       0.20329888      -0.37241122      -0.02092889
C       -1.97821478       2.40712567      24.86939766        0       0.02631316      -0.19898023      -0.02331536
C       -1.88103217       3.74679006      25.29001695        0       0.14732583       0.14973874      -0.01097128
C       -0.61130933       4.30484025      25.38143373        0       0.00288805      -0.11709696       0.01503491
H        1.54115725       4.01956725      25.16763587        0      -0.01005789       0.00781800      -0.00386013
H        1.35971711       1.61823651      24.44475400        0      -0.07147563       0.10321046       0.01545248
H       -3.14399645      -0.38092818      24.16642784        0       0.01029605       0.01029464      -0.00468314
H       -2.77954852       4.33017505      25.48936128        0      -0.00824248      -0.00669531       0.00770434
H       -0.50209857       5.34205323      25.69731825        0       0.01268094       0.04157847      -0.01285497
