110
Lattice="11.45512985522207 0.0 0.0 5.727564927611035 9.92043345827187 0.0 0.0 0.0 31.691342951089922" Properties=species:S:1:pos:R:3:tags:I:1:forces:R:3 energy=-462.18896484375 free_energy=-462.18896484375 stress="0.004913864657282829 2.4763867259025574e-06 -2.477318048477173e-07 2.4763867259025574e-06 0.00496766297146678 -4.1443854570388794e-07 -2.477318048477173e-07 -4.1443854570388794e-07 0.004836480598896742" pbc="T T F"
Al       2.62842845       1.21249040       9.98878341        6       0.00016663       0.00119856       0.00119289
Al       5.48221100       1.22929048       9.98545508        6       0.00156690       0.00026428       0.00057742
Al       8.33159817       1.24726268       9.94361211        6       0.00223458       0.00036978       0.00237109
Al      11.20593542       1.24311468       9.98313434        6       0.00125611      -0.00105203       0.00053516
Al       4.03641185       3.69885854      10.02150077        6       0.00211850       0.00009801      -0.00390382
Al       6.89766312       3.72243329       9.99995158        6       0.00185944      -0.00073446      -0.00025594
Al       9.77313343       3.72548480       9.99156800        6       0.00034275      -0.00142587      -0.00051981
Al      12.63395811       3.70458339       9.98746950        6       0.00177935       0.00044845       0.00094389
Al       5.43806838       6.18572905      10.03839219        6       0.00350145       0.00090070      -0.00248078
Al       8.29891810       6.19445589      10.00946588        6       0.00457058      -0.00009357      -0.00086358
Al      11.17902086       6.18752324      10.03847427        6       0.00201841       0.00076531      -0.00086999
Al      14.04781264       6.18781405      10.02781708        6       0.00256367      -0.00048400      -0.00362161
Al       6.88576187       8.67487361       9.97332062        6       0.00153933       0.00046000       0.00260260
Al       9.76191947       8.67149101       9.97614620        6       0.00153668      -0.00119982       0.00192603
Al      12.62870144       8.67334961       9.98306552        6       0.00141497      -0.00026078       0.00090152
Al      15.48224334       8.68398899       9.99655570        6       0.00311452      -0.00159047      -0.00236052
Al       1.25580588       1.97565595      12.36191381        5      -0.00296532       0.01752220      -0.01411014
Al       4.12179820       1.97928919      12.35286950        5       0.00129211       0.00259391       0.00506992
Al       6.98589863       1.97445202      12.36070950        5       0.00207814       0.01959142      -0.02460172
Al       9.84251649       1.98398592      12.35868004        5       0.00067575       0.01512405      -0.01487118
Al       2.68223240       4.46467810      12.37091021        5       0.00491767       0.00096930       0.00109284
Al       5.54291607       4.47577852      12.37831123        5       0.00429698      -0.00291726       0.00655532
Al       8.40196487       4.47786693      12.37661277        5       0.00803799      -0.00424133      -0.00479244
Al      11.27659553       4.46957003      12.36953230        5      -0.00982810      -0.00252952       0.00359482
Al       4.10777700       6.95436593      12.38993912        5       0.00179113       0.00316083       0.00038979
Al       6.96919752       6.95920790      12.38835180        5       0.00755351       0.00312505      -0.00394069
Al       9.83169661       6.95568121      12.39936753        5      -0.01006931       0.00163925      -0.03208185
Al      12.69915191       6.95006499      12.37308114        5       0.00180775       0.00462255       0.00093029
Al       5.54776915       9.43200431      12.36811621        5       0.00072646      -0.00581421      -0.02475754
Al       8.41081161       9.44029677      12.37509735        5       0.01171110      -0.03732947      -0.04254010
Al      11.27858038       9.42410810      12.36847671        5      -0.00380236       0.00089835      -0.03966865
Al      14.13681133       9.43465018      12.34658397        5       0.00204151      -0.00401651       0.00504987
Al       1.30428580       0.28418189      14.63330375        4      -0.00450947      -0.00062985       0.03651096
Al       4.17462786       0.27471488      14.64483015        4      -0.00639229       0.00492999       0.00639596
Al       7.03299713       0.27236420      14.64182895        4       0.00680694       0.01003091       0.00843337
Al       9.88884311       0.30201381      14.62447434        4       0.00157164      -0.01036156       0.02972016
Al       2.74325724       2.76808858      14.63862880        4      -0.00098672      -0.00312509       0.01046419
Al       5.60212263       2.75800231      14.63302507        4      -0.00044899       0.00607432       0.01684664
Al       8.45642938       2.78918331      14.63815783        4       0.00492911      -0.01324603       0.02195550
Al      11.33052667       2.77005931      14.64996626        4      -0.00518963      -0.00057504       0.00716640
Al       4.16847329       5.24942634      14.68402420        4      -0.00020680      -0.00000235      -0.00254789
Al       7.02095073       5.25924477      14.68875812        4      -0.00360631      -0.00417433      -0.03708009
Al       9.88306649       5.24906190      14.68088845        4       0.00419178       0.00092969      -0.00149273
Al      12.75535735       5.23986489      14.63402982        4       0.00196095       0.00587302       0.02418793
Al       5.58590927       7.73457117      14.67930333        4      -0.00266570       0.00543709       0.01019484
Al       8.44071301       7.72322455      14.69717180        4       0.00561814       0.01045797      -0.01203572
Al      11.31888021       7.73330645      14.65175077        4       0.00376391      -0.00509906       0.02043190
Al      14.16913247       7.72316203      14.65637846        4       0.01871228       0.00748682       0.02070449
Al       2.79370836       1.04058745      16.94714110        3      -0.00851547       0.00038901      -0.01690433
Al       5.66063343       1.04763453      16.93656828        3       0.00078240       0.00531177      -0.01278916
Al       8.53262884       1.05251848      16.94786392        3      -0.00137592       0.00036576      -0.02667118
Al      11.38259850       1.04503990      16.95244139        3       0.00337072      -0.01122153      -0.02208077
Al       4.21795868       3.52081369      16.96035555        3       0.00521259       0.02296518      -0.00406029
Al       7.07660392       3.56339643      16.95277915        3       0.00258856      -0.02461461      -0.00054075
Al       9.94086906       3.54204403      16.98527064        3      -0.00357441       0.00377306      -0.03188645
Al      12.80863737       3.53480577      16.94859931        3       0.01028057       0.01079373      -0.01525451
Al       5.65884551       6.02098514      17.00269348        3      -0.03074697       0.01365114       0.00502844
Al       8.48310582       6.01200569      16.99405575        3       0.03429462       0.02698724       0.01310653
Al      11.39222327       6.02953476      16.95822154        3      -0.00689302      -0.00153629      -0.01126629
Al      14.24831357       6.01450523      16.97776635        3       0.00412851       0.00349122      -0.00041124
Al       7.06531080       8.47464957      17.02140606        3       0.01145185       0.01774486      -0.01912695
Al       9.94335120       8.49454430      16.96931504        3       0.00406996      -0.00461510      -0.01802961
Al      12.82958628       8.50173100      16.97330144        3       0.00068257      -0.00279283      -0.01035052
Al      15.68799079       8.48669846      17.01818307        3      -0.01197650       0.00605584      -0.04599014
Al       1.37653063       1.88291477      19.17879011        2       0.00918844      -0.00476106       0.03102017
Al       4.26523018       1.85282363      19.19519513        2      -0.00675436       0.00605375       0.04036812
Al       7.13306419       1.86111561      19.17325248        2       0.00036030       0.00616533       0.03486988
Al      10.00767329       1.84440032      19.21429532        2      -0.00123275      -0.00379146       0.00936282
Al       2.83147217       4.37227554      19.27102315        2       0.00440058      -0.00283517      -0.01298171
Al       5.69186208       4.38496469      19.26594672        2      -0.00449904       0.00434228       0.02843035
Al       8.52431611       4.37212019      19.28485747        2       0.01896859      -0.00645052      -0.01564611
Al      11.42268100       4.37405038      19.20852042        2      -0.00169420      -0.00532954       0.00779074
Al       4.27212581       6.83903272      19.33062421        2      -0.00241323       0.00334194       0.01604658
Al       7.11142386       6.82118161      19.40461282        2       0.01181772       0.01473943      -0.01586788
Al       9.98123285       6.83610774      19.21931278        2       0.00190907       0.00588368       0.01459928
Al      12.86076223       6.83003140      19.24324068        2      -0.00383631       0.01092762       0.00247427
Al       5.66706162       9.29598934      19.31587020        2       0.00059876       0.00449466       0.00373255
Al       8.56602898       9.30844207      19.24659384        2       0.00125157      -0.00217721       0.00995055
Al      11.42223148       9.31057179      19.21902455        2      -0.00214902       0.00338885       0.00898344
Al      14.30247663       9.33341484      19.28311877        2       0.00093917       0.00578176       0.00749016
Al       1.43413608       0.25013160      21.46515778        1      -0.01598044       0.00547756       0.07303619
Al       4.21315894       0.25907751      21.84976200        1       0.01414589      -0.00279015      -0.00516411
Al       7.08134196       0.26775779      21.52003149        1       0.01395636      -0.00625215      -0.03639905
Al      10.16288830       0.23740231      22.12087107        1      -0.00571537       0.00705555      -0.02078476
Al       2.90540640       2.77148771      21.55010598        1      -0.01714332      -0.01922802       0.00893556
Al       5.75632477       2.74026424      21.43948305        1      -0.01515081       0.00670235       0.11498105
Al       8.66762253       2.61160293      21.44803201        1      -0.05367589       0.02924898       0.01712069
Al      11.43720360       2.74278759      21.50803772        1       0.03214848      -0.02175723      -0.05152097
Al       4.26994514       5.24878187      21.78797378        1      -0.00739539      -0.00697838       0.01341192
Al       7.32583028       5.08492379      21.76125630        1      -0.08570874       0.03221312      -0.05006929
Al      10.09626565       5.20616702      21.54292983        1      -0.03344468      -0.01142925      -0.00024556
Al      12.86488773       5.19240293      21.57923276        1       0.01672348       0.01027351      -0.00230662
Al       5.72137168       7.64575011      21.84644847        1       0.01151948       0.01593978      -0.03346781
Al       8.61399634       7.64205008      21.70167565        1      -0.01035066       0.00054869      -0.00249816
Al      11.48130863       7.67046895      21.57146912        1      -0.00482727       0.01907649       0.00087866
Al      14.33231504       7.74791035      21.60332707        1      -0.00401340       0.00431351      -0.00446089
C       -0.96635955       4.08758771      25.15941494        0      -0.08315154      -0.07146382      -0.01598752
C       -0.59944570       2.79967492      24.76194575        0       0.15368211      -0.11456070      -0.05470367
C       -1.61963514       1.85443867      24.57422976        0      -0.00759647       0.19203287       0.07261021
N       -1.58038321       0.52883594      24.14954682        0      -0.27118412       0.00991908       0.04804613
N       -2.85232319       0.08653798      24.48541657        0      -0.24107143       0.34200183       0.03508341
N       -3.73813669       1.07196130      24.74224959        0       0.31149825      -0.56886935      -0.03099216
C       -2.97076621       2.18576857      24.88246898        0       0.04610989      -0.29905722      -0.04145253
C       -3.34566432       3.48183137      25.27994792        0       0.22846723       0.22404736      -0.01661746
C       -2.32684654       4.41944919      25.40571062        0      -0.01582963      -0.14660251       0.01745597
H       -0.19871107       4.85472122      25.27262621        0       0.00544930       0.00307985      -0.00591904
H        0.44298224       2.49409612      24.60618849        0      -0.09944556       0.14493516       0.02961235
H       -3.18479061      -0.81964161      24.13802265        0       0.00865801       0.02734029       0.00363361
H       -4.39364420       3.73584904      25.43492374        0      -0.01124600      -0.00206594       0.01854679
H       -2.57378435       5.43445967      25.71361811        0       0.02453943       0.06625424      -0.01151089
