110
Lattice="11.45512985522207 0.0 0.0 5.727564927611035 9.92043345827187 0.0 0.0 0.0 31.691342951089922" Properties=species:S:1:pos:R:3:tags:I:1:forces:R:3 energy=-461.9123229980469 free_energy=-461.9123229980469 stress="0.00486771110445261 3.0063092708587646e-06 -1.73225998878479e-07 3.0063092708587646e-06 0.004904485773295164 -1.0915100574493408e-06 -1.73225998878479e-07 -1.0915100574493408e-06 0.004692455753684044" pbc="T T F"
Al       2.33591255       1.21452041      10.01824018        6       0.00056935       0.00004841       0.00037468
Al       5.19227163       1.21691912      10.01163387        6       0.00255592      -0.00062829      -0.00098641
Al       8.04749607       1.23388502      10.00185471        6       0.00277441      -0.00079304       0.00000557
Al      10.90952447       1.24111143       9.97790190        6       0.00253837      -0.00249188       0.00109973
Al       3.73880794       3.69330635      10.01630699        6       0.00329500      -0.00036341      -0.00174945
Al       6.59301454       3.71358637       9.98555266        6       0.00369765      -0.00130327       0.00076421
Al       9.45707435       3.72356349       9.96217373        6       0.00267953      -0.00183676       0.00230140
Al      12.32717233       3.69888880      10.01277820        6       0.00357680      -0.00151117      -0.00097797
Al       5.12748062       6.18803880       9.95588304        6       0.00528384      -0.00069209       0.00183818
Al       7.98533569       6.19565233       9.93566051        6       0.00559131      -0.00087599       0.00412055
Al      10.86111754       6.17995509       9.99989465        6       0.00472632      -0.00050148       0.00093232
Al      13.73296397       6.17362847       9.99897429        6       0.00415102      -0.00029767      -0.00045898
Al       6.57686062       8.67480949       9.96752276        6       0.00400479      -0.00083034       0.00232855
Al       9.45190300       8.66112569       9.98704557        6       0.00296420      -0.00096878       0.00206544
Al      12.32032804       8.65909371       9.98463616        6       0.00345386      -0.00083973       0.00037558
Al      15.17990248       8.67010601       9.99646335        6       0.00329556      -0.00063112       0.00027729
Al       1.01595901       1.98917951      12.38344874        5      -0.00063669       0.01396946      -0.00812786
Al       3.88194536       1.99667726      12.37583025        5       0.00462410       0.00221511       0.00177525
Al       6.75011705       1.99329239      12.37584606        5       0.00279427       0.01223574      -0.01110605
Al       9.61333219       2.00204730      12.36731998        5       0.00101143       0.00850304      -0.00978280
Al       2.44311828       4.48051244      12.37314629        5       0.00560495      -0.00067301       0.00097866
Al       5.30894136       4.48884903      12.36169970        5       0.00506878      -0.00093953       0.00600717
Al       8.17039130       4.49197352      12.35601408        5       0.00659717      -0.00344993      -0.00134128
Al      11.03437707       4.48351606      12.37835720        5      -0.00460505      -0.00086291      -0.00085449
Al       3.87941100       6.95913444      12.36347036        5       0.00683954       0.00280912       0.00008724
Al       6.74402801       6.96136261      12.35420243        5       0.00299058       0.00335759       0.00218252
Al       9.60511862       6.96134781      12.38905928        5      -0.00804511       0.00210835      -0.02126809
Al      12.47125179       6.96043459      12.37211495        5      -0.00226946       0.00294223      -0.01056999
Al       5.31865824       9.44196856      12.37412217        5       0.00069419      -0.00792305      -0.01929392
Al       8.17629220       9.44539975      12.37826444        5       0.00969838      -0.02132910      -0.01450157
Al      11.04465463       9.43619623      12.37845203        5      -0.00068100      -0.00151710      -0.02465363
Al      13.90471165       9.44086316      12.36773647        5       0.00548295      -0.00008452      -0.00219249
Al       1.11413367       0.29684551      14.65304539        4       0.00082503      -0.00305399       0.02287621
Al       3.98691771       0.29747561      14.65949622        4      -0.00463785       0.00046134       0.00543581
Al       6.84043742       0.28897571      14.65677048        4       0.00579482       0.00753340       0.00477185
Al       9.70170387       0.31428708      14.63684389        4       0.00266652      -0.01002998       0.02285246
Al       2.55438828       2.78803262      14.66225136        4      -0.00057111      -0.00317327       0.00445927
Al       5.41340958       2.78134598      14.64477753        4       0.00095661       0.00239149       0.01383020
Al       8.26992769       2.80307474      14.65127112        4       0.00535300      -0.01058560       0.01062153
Al      11.14060122       2.78951243      14.67495938        4      -0.00198122      -0.00064219       0.00258858
Al       3.98382143       5.26335965      14.66737543        4       0.00069803       0.00029954       0.00273218
Al       6.84044550       5.26864034      14.67216624        4      -0.00192122      -0.00292099      -0.01858173
Al       9.69212878       5.26297145      14.68636539        4       0.00632737      -0.00055581      -0.00542232
Al      12.56004759       5.26186219      14.64059072        4       0.00393805       0.00158869       0.02198174
Al       5.40831362       7.73272521      14.66320749        4      -0.00254549       0.00771544       0.00677383
Al       8.26245544       7.73186425      14.68815889        4       0.00218394       0.00842527      -0.00626851
Al      11.13043747       7.74639526      14.65341460        4       0.00295715      -0.00439732       0.01349155
Al      13.98575256       7.73408118      14.64301043        4       0.01607149       0.00569266       0.02218120
Al       2.67137945       1.05440983      16.96014013        3      -0.00356364       0.00014060      -0.00398021
Al       5.53838938       1.06643498      16.95624532        3      -0.00024854       0.00636660      -0.01437694
Al       8.40663518       1.07253168      16.95035141        3       0.00109069       0.00131251      -0.02040945
Al      11.26304015       1.07046316      16.96132676        3       0.00211705      -0.00887480      -0.01688614
Al       4.10022129       3.53772330      16.96675876        3       0.00058039       0.01119310      -0.00048180
Al       6.95473316       3.57646513      16.96272893        3       0.00253755      -0.01669030      -0.00309179
Al       9.81359264       3.55910723      17.00023306        3      -0.00360344       0.00178556      -0.03034613
Al      12.68573705       3.55190725      16.95754134        3       0.00794788       0.01015631      -0.01404051
Al       5.53339555       6.03480421      16.98604135        3      -0.01764921       0.00504398       0.00572955
Al       8.36367154       6.02814609      16.99622097        3       0.02396283       0.01220656       0.01078551
Al      11.25586695       6.04187861      16.96718204        3      -0.00151291       0.00264418      -0.01203590
Al      14.12503221       6.03435003      16.96326577        3       0.00253818       0.00364430      -0.00346659
Al       6.95555650       8.48749420      17.00816904        3       0.00752120       0.01675264      -0.00653964
Al       9.82758515       8.50771674      16.97038328        3      -0.00010738      -0.00403149      -0.00815517
Al      12.70455543       8.52171996      16.96484353        3       0.00151362      -0.00379277      -0.00322826
Al      15.57732033       8.51022388      16.99736792        3      -0.01387098       0.00297424      -0.03299719
Al       1.30705959       1.90561193      19.19896760        2       0.00398362      -0.00106712       0.01424314
Al       4.18921137       1.86048127      19.21935038        2      -0.00924780       0.00205457       0.02601269
Al       7.06227989       1.87391775      19.19791042        2      -0.00425186       0.00253161       0.02291810
Al       9.93050660       1.85864574      19.23540921        2      -0.00184949      -0.00071005       0.00596529
Al       2.75068065       4.39544478      19.24354722        2       0.00107102      -0.00094996      -0.00393747
Al       5.61447771       4.38837951      19.26934861        2      -0.00855337       0.00054027       0.01516796
Al       8.45145072       4.37872117      19.29786178        2       0.01374417      -0.00718870      -0.01008960
Al      11.34056423       4.38077123      19.20575676        2       0.00008785      -0.00121194       0.00839514
Al       4.18580057       6.86741433      19.29081704        2      -0.00120174       0.00174844       0.00626790
Al       7.05664458       6.82453038      19.36049942        2       0.00770782       0.01202042      -0.00370579
Al       9.90645232       6.85711509      19.25502080        2      -0.00094234       0.00356426       0.01166323
Al      12.78030742       6.84994892      19.23483868        2      -0.00374594       0.00739694       0.00569536
Al       5.61010062       9.33762432      19.27864492        2      -0.00076597       0.00209303       0.00463789
Al       8.51786387       9.30427592      19.27495178        2      -0.00181893      -0.00029488       0.00980400
Al      11.34739436       9.31968143      19.23076920        2      -0.00516504       0.00185319       0.00888948
Al      14.23371613       9.34268498      19.26621730        2      -0.00124594       0.00227940       0.00335349
Al       1.45764274       0.27527813      21.44541483        1      -0.01275274       0.00089872       0.04570510
Al       4.20002710       0.29703442      22.03235455        1       0.00664886       0.00574617      -0.00752321
Al       7.07366761       0.25150559      21.52093354        1       0.00452344      -0.00209236      -0.01744803
Al      10.21971347       0.20632308      22.04269764        1      -0.00757825      -0.00034206      -0.01844601
Al       2.85745811       2.78221514      21.51126444        1      -0.01374832      -0.00776754       0.00826767
Al       5.71401027       2.72147558      21.47362445        1      -0.01589768       0.00997889       0.08082318
Al       8.63729763       2.59743222      21.50897719        1      -0.03298703       0.01497096       0.01021440
Al      11.42312065       2.79871092      21.54057357        1       0.00943558      -0.01490630      -0.03834310
Al       4.31119696       5.27648727      21.66287762        1      -0.00378936      -0.00721151       0.00680867
Al       7.28473755       5.05386587      21.77292575        1      -0.05208994       0.02169903      -0.03762951
Al      10.07701626       5.22827708      21.55880701        1      -0.02597800      -0.00949970      -0.00494443
Al      12.86960382       5.21782584      21.58239217        1       0.00772836       0.00624455      -0.00378179
Al       5.71336717       7.67624949      21.65532627        1       0.00403579       0.00165353      -0.01782729
Al       8.49671178       7.63069255      22.00168605        1      -0.00668326       0.00164693      -0.00145867
Al      11.45288377       7.66934561      21.58132918        1      -0.01277621       0.01676039       0.00114361
Al      14.29561978       7.75182757      21.62599861        1       0.00057249       0.00455264      -0.00369871
C        0.54737508       3.55011527      25.10495080        0      -0.06516694      -0.01399350      -0.01617121
C        0.46399311       2.22520770      24.67413350        0       0.11128169      -0.06664019      -0.04011757
C       -0.81379328       1.66523747      24.53415059        0       0.02792720       0.13908878       0.04121134
N       -1.20573761       0.40818532      24.08584851        0      -0.17992926       0.01642903       0.03197015
N       -2.54119691       0.38697434      24.46165168        0      -0.18443109       0.21420604       0.02527489
N       -3.07286602       1.58713945      24.75732430        0       0.20675378      -0.37933457      -0.02182409
C       -1.98637621       2.40226754      24.88181790        0       0.02619467      -0.20126018      -0.02361203
C       -1.89152899       3.73938144      25.31122302        0       0.14698583       0.15117581      -0.01230024
C       -0.62289012       4.29942556      25.40431460        0       0.00395959      -0.12025805       0.01501935
H        1.52982890       4.02063672      25.18534322        0      -0.00978051       0.00767982      -0.00354373
H        1.35273939       1.62193993      24.45032139        0      -0.07332627       0.10581965       0.01586107
H       -3.14717938      -0.38337640      24.16249445        0       0.01108710       0.01028949      -0.00352077
H       -2.79094895       4.31941714      25.51667705        0      -0.00681286      -0.00858871       0.00765943
H       -0.51533468       5.33430510      25.72829429        0       0.01309080       0.04196219      -0.01350186
