110
Lattice="11.45512985522207 0.0 0.0 5.727564927611035 9.92043345827187 0.0 0.0 0.0 31.691342951089922" Properties=species:S:1:pos:R:3:tags:I:1:forces:R:3 energy=-461.87445068359375 free_energy=-461.87445068359375 stress="0.004793921485543251 2.989545464515686e-06 -2.1606683731079102e-07 2.989545464515686e-06 0.004835211671888828 -1.1953525245189667e-06 -2.1606683731079102e-07 -1.1953525245189667e-06 0.004610251635313034" pbc="T T F"
Al       2.31292896       1.22908767      10.02747034        6       0.00158332      -0.00044916      -0.00046145
Al       5.17579152       1.23292451      10.00584699        6       0.00316634      -0.00088162      -0.00070016
Al       8.03192658       1.23990651      10.00827703        6       0.00330717      -0.00058857      -0.00053129
Al      10.88698917       1.24724344       9.98062173        6       0.00366234      -0.00236879       0.00049864
Al       3.73154890       3.70776009       9.99973335        6       0.00347180      -0.00059557      -0.00041303
Al       6.59419859       3.72575944       9.98964264        6       0.00324613      -0.00125214       0.00110143
Al       9.45452755       3.73519142       9.97979646        6       0.00260673      -0.00190276       0.00157248
Al      12.31953257       3.70926147      10.01906640        6       0.00332464      -0.00117240      -0.00066731
Al       5.13348628       6.19724187       9.95955669        6       0.00431761      -0.00088389       0.00220477
Al       7.99456205       6.21053934       9.96389766        6       0.00443872      -0.00128278       0.00285497
Al      10.86490857       6.19798755       9.99776095        6       0.00372044      -0.00082300       0.00143322
Al      13.73331687       6.18253999       9.99978519        6       0.00356325      -0.00015361       0.00042177
Al       6.56748048       8.68410953       9.97276841        6       0.00379292      -0.00066649       0.00228051
Al       9.43973745       8.68365956       9.96097082        6       0.00350340      -0.00156856       0.00278383
Al      12.30982410       8.67035800       9.99081399        6       0.00366707      -0.00085721       0.00027276
Al      15.16887664       8.67183878      10.00000409        6       0.00359914      -0.00056580       0.00011645
Al       1.00443695       1.99307622      12.38891238        5      -0.00166534       0.01370607      -0.00649412
Al       3.87134863       1.99960785      12.37497639        5       0.00577900       0.00248957       0.00000296
Al       6.73933633       1.99752147      12.37867539        5       0.00229173       0.01145749      -0.01093917
Al       9.60238589       2.00512415      12.37373248        5       0.00147957       0.00822221      -0.00759055
Al       2.43643246       4.48219456      12.37047382        5       0.00579145      -0.00052413       0.00106651
Al       5.29946218       4.48914303      12.36195403        5       0.00535261      -0.00062028       0.00574440
Al       8.16169743       4.49434170      12.36666318        5       0.00557382      -0.00203617      -0.00009743
Al      11.02575654       4.48802220      12.38304566        5      -0.00364274      -0.00084726      -0.00152912
Al       3.86998874       6.96156599      12.36516182        5       0.00880448       0.00161082      -0.00142306
Al       6.73293628       6.96491083      12.36381854        5       0.00357868       0.00310970       0.00210621
Al       9.59868047       6.96764885      12.38778223        5      -0.00872115       0.00188610      -0.02303224
Al      12.46442594       6.96438535      12.37265518        5      -0.00345250       0.00263688      -0.01092350
Al       5.30705007       9.44452460      12.37684103        5       0.00159144      -0.00704065      -0.01756631
Al       8.16774291       9.44825694      12.37630834        5       0.01046497      -0.02134903      -0.01678227
Al      11.03383932       9.44149997      12.37643934        5      -0.00077478      -0.00180959      -0.02466675
Al      13.89503646       9.44393218      12.37092534        5       0.00477336       0.00088028      -0.00246986
Al       1.10575658       0.29665385      14.65392544        4       0.00115693      -0.00270224       0.02415908
Al       3.97806167       0.29792089      14.65895224        4      -0.00463485       0.00046440       0.00585752
Al       6.83113160       0.28854619      14.65939957        4       0.00672855       0.00873397       0.00416139
Al       9.69341736       0.31457235      14.64166290        4       0.00294100      -0.01003941       0.02340333
Al       2.54764271       2.78927241      14.66174975        4      -0.00102155      -0.00399434       0.00482065
Al       5.40421384       2.78113451      14.64673539        4       0.00148546       0.00245190       0.01367872
Al       8.26148304       2.80257087      14.65739616        4       0.00549720      -0.01034707       0.01002282
Al      11.13229683       2.79202914      14.68004943        4      -0.00206572      -0.00133938       0.00180889
Al       3.97511590       5.26402196      14.66593906        4       0.00103552       0.00024043       0.00308179
Al       6.83037347       5.26974054      14.67685807        4      -0.00002448      -0.00385325      -0.02060198
Al       9.68613047       5.26537411      14.68962866        4       0.00544902      -0.00030915      -0.00523327
Al      12.55481508       5.26239737      14.64108552        4       0.00407293       0.00206233       0.02157477
Al       5.39863759       7.73366433      14.66834166        4      -0.00261199       0.00882803       0.00697901
Al       8.25489171       7.73273094      14.68921402        4       0.00301385       0.00881383      -0.00684135
Al      11.12445965       7.74748436      14.65270737        4       0.00248238      -0.00415558       0.01426793
Al      13.97888435       7.73577713      14.64418126        4       0.01451558       0.00495164       0.02189944
Al       2.66558175       1.05363425      16.96088853        3      -0.00300472      -0.00020928      -0.00488508
Al       5.53300007       1.06588469      16.95707747        3       0.00002948       0.00547536      -0.01371949
Al       8.40199799       1.07291141      16.95442162        3       0.00066224       0.00041383      -0.02234748
Al      11.25767514       1.07141973      16.96526886        3       0.00303584      -0.01022789      -0.02033179
Al       4.09659649       3.53700911      16.96741655        3      -0.00028635       0.01192305      -0.00075967
Al       6.95015728       3.57776176      16.96421790        3       0.00277741      -0.02057966      -0.00331920
Al       9.80880533       3.56024132      17.00334767        3      -0.00327974       0.00147898      -0.03175339
Al      12.68293074       3.55132482      16.95695106        3       0.00752837       0.00986143      -0.01211297
Al       5.52860405       6.03474991      16.98734247        3      -0.01927569       0.00643281       0.00740288
Al       8.35985421       6.02839599      16.99871519        3       0.02341002       0.01296289       0.01037284
Al      11.25353539       6.04101887      16.96733014        3      -0.00167753       0.00356657      -0.01160171
Al      14.12244048       6.03416126      16.96343125        3       0.00217196       0.00341065      -0.00249822
Al       6.95152401       8.48860369      17.00983941        3       0.00694342       0.01599814      -0.00609788
Al       9.82356523       8.50618163      16.96980053        3       0.00045661      -0.00248637      -0.00511613
Al      12.70016039       8.52203272      16.96717956        3       0.00159361      -0.00419221      -0.00341352
Al      15.57257316       8.51115830      17.00250328        3      -0.01418251       0.00292378      -0.03444578
Al       1.30475958       1.90333765      19.20128181        2       0.00397239      -0.00099878       0.01384790
Al       4.18428732       1.85538859      19.21874137        2      -0.00870211       0.00299146       0.02726015
Al       7.05875233       1.86992517      19.19934817        2      -0.00468817       0.00354682       0.02461161
Al       9.92906691       1.85817128      19.23686869        2      -0.00311056      -0.00060697       0.00682710
Al       2.74905752       4.39309447      19.24498473        2       0.00107212      -0.00136279      -0.00474733
Al       5.61455022       4.38482209      19.26675827        2      -0.01009795      -0.00025545       0.01681767
Al       8.44913257       4.37818856      19.29804820        2       0.01382495      -0.00854306      -0.00949854
Al      11.34151439       4.38059057      19.20576689        2      -0.00074232      -0.00162241       0.00924900
Al       4.18331894       6.86684927      19.29242694        2      -0.00071631       0.00154151       0.00414876
Al       7.05448978       6.82441466      19.36242825        2       0.00758770       0.01131242      -0.00419369
Al       9.90701585       6.85679009      19.25519183        2      -0.00156953       0.00263874       0.01292578
Al      12.78072556       6.84933724      19.23626645        2      -0.00450848       0.00710053       0.00717014
Al       5.60676193       9.33678783      19.28210653        2      -0.00044390       0.00183374       0.00483340
Al       8.51614300       9.30115302      19.27664510        2      -0.00153480      -0.00071858       0.00923237
Al      11.34397207       9.31666659      19.23564209        2      -0.00528743       0.00205156       0.00933187
Al      14.23118417       9.34207705      19.27158902        2      -0.00123072       0.00205409       0.00374846
Al       1.45914968       0.26891844      21.44683527        1      -0.01352018       0.00057444       0.04599923
Al       4.20140035       0.28790394      22.03932306        1       0.00691346       0.00537896      -0.01012687
Al       7.06646326       0.24025590      21.52585120        1       0.00542796      -0.00095715      -0.01794269
Al      10.22359144       0.19937129      22.04153963        1      -0.00727847      -0.00052928      -0.01851826
Al       2.85149834       2.77206645      21.51169392        1      -0.01256304      -0.00830710       0.00750512
Al       5.71018783       2.71291197      21.47111886        1      -0.01676886       0.00857612       0.08304377
Al       8.63087575       2.58774694      21.51070141        1      -0.03396192       0.01621111       0.01022217
Al      11.41566175       2.79396290      21.54024954        1       0.01012653      -0.01413786      -0.03861931
Al       4.30842434       5.25979481      21.64616470        1      -0.00385165      -0.00732878       0.00700497
Al       7.27622120       5.04828149      21.76892467        1      -0.05410981       0.02223412      -0.03877388
Al      10.06709142       5.22186926      21.55618318        1      -0.02563473      -0.00934098      -0.00490523
Al      12.86615419       5.20599912      21.58524697        1       0.00772744       0.00690523      -0.00422456
Al       5.70657965       7.66140829      21.65683675        1       0.00529269       0.00385571      -0.01778982
Al       8.48921138       7.62792888      22.00283031        1      -0.00541537       0.00192545      -0.00193326
Al      11.45755076       7.65168314      21.58885351        1      -0.01338068       0.01809519       0.00001120
Al      14.29541879       7.74662098      21.63031349        1       0.00079490       0.00433151      -0.00366206
C        0.58386583       3.53827818      25.09861454        0      -0.06246449      -0.01792444      -0.01727137
C        0.49136369       2.21293296      24.67087949        0       0.11839845      -0.06334238      -0.03954285
C       -0.78990205       1.66240800      24.52922269        0       0.02376068       0.13820980       0.04074929
N       -1.19053845       0.40733933      24.08261827        0      -0.18200788       0.01415821       0.03407859
N       -2.52598189       0.39627119      24.45904926        0      -0.18417624       0.21121295       0.02436136
N       -3.05006653       1.60074828      24.75112619        0       0.20445447      -0.38329273      -0.02186752
C       -1.95783867       2.40815043      24.87442087        0       0.02693995      -0.19900881      -0.02400449
C       -1.85390257       3.74553445      25.29963805        0       0.15408526       0.15695800      -0.01022532
C       -0.58132335       4.29688891      25.39305486        0      -0.00149605      -0.11966587       0.01571527
H        1.56957037       4.00178991      25.17962884        0      -0.00856158       0.00751123      -0.00385144
H        1.37603683       1.60286795      24.44931760        0      -0.07198765       0.10635928       0.01568651
H       -3.13682017      -0.37246500      24.16612102        0       0.00983244       0.00949511      -0.00473841
H       -2.74920155       4.33285229      25.50145698        0      -0.01050962      -0.00636361       0.00788602
H       -0.46699335       5.33216664      25.71302119        0       0.01298965       0.04491966      -0.01241616
