110
Lattice="11.45512985522207 0.0 0.0 5.727564927611035 9.92043345827187 0.0 0.0 0.0 31.691342951089922" Properties=species:S:1:pos:R:3:tags:I:1:forces:R:3 energy=-462.3157958984375 free_energy=-462.3157958984375 stress="0.005925394129008055 2.1569430828094482e-06 -8.055940270423889e-08 2.1569430828094482e-06 0.005966142751276493 8.89413058757782e-07 -8.055940270423889e-08 8.89413058757782e-07 0.005990221630781889" pbc="T T F"
Al       2.72744328       1.14079821       9.96627570        6      -0.00155470       0.00171636      -0.00025832
Al       5.57367918       1.16077458       9.94241266        6       0.00080113       0.00100731       0.00197337
Al       8.43700923       1.15924677       9.93479120        6       0.00084651       0.00123191       0.00175988
Al      11.30226620       1.15313273       9.95384369        6       0.00065881       0.00030777       0.00086097
Al       4.15454825       3.63609694       9.95206704        6       0.00012845       0.00070073       0.00138656
Al       7.02181043       3.64117041       9.96863896        6       0.00006782       0.00053747       0.00139834
Al       9.89128885       3.64249320       9.96116946        6      -0.00039195       0.00040615       0.00099610
Al      12.74675120       3.63371402       9.98445441        6       0.00057370      -0.00105859      -0.00257968
Al       5.59655308       6.10885541       9.97312356        6      -0.00000902       0.00101402       0.00172701
Al       8.45949935       6.11406702      10.00243316        6       0.00030688       0.00092049       0.00026190
Al      11.32874970       6.11894121       9.96253588        6      -0.00055950       0.00068288       0.00155917
Al      14.18997108       6.10974908       9.97413134        6      -0.00046753       0.00095156       0.00015985
Al       7.01036400       8.58388598       9.95253336        6       0.00043466       0.00184037       0.00215679
Al       9.88175661       8.59679227       9.87469472        6       0.00003238       0.00087689       0.00419430
Al      12.73872852       8.60107507       9.96802315        6       0.00070446       0.00012301      -0.00089146
Al      15.60549624       8.58238833       9.94868553        6       0.00024248       0.00190309       0.00154438
Al       1.33354312       1.93250088      12.33631498        5      -0.00169802       0.01267353      -0.00123545
Al       4.19640730       1.94066194      12.33455282        5       0.00336962       0.00120515      -0.00450328
Al       7.06124562       1.93128770      12.33664739        5      -0.00240095       0.01590594      -0.01652180
Al       9.92162938       1.94300847      12.33147882        5      -0.00361803       0.00905006      -0.01065886
Al       2.76803968       4.41961928      12.34337533        5       0.00110860       0.00090882      -0.00103727
Al       5.62349253       4.42387579      12.34635583        5       0.00539383      -0.00276392       0.00149388
Al       8.48551457       4.42555331      12.35117524        5       0.00462456      -0.00063064       0.00044906
Al      11.35652312       4.41866315      12.34433262        5      -0.00877474       0.00495622      -0.00098028
Al       4.19170046       6.89861227      12.34379205        5       0.00764274       0.00417850       0.00292485
Al       7.05869162       6.90708490      12.35177580        5       0.00052872       0.00304087       0.00439264
Al       9.92812029       6.90556524      12.34991940        5      -0.01058687       0.00400846      -0.01876388
Al      12.78470029       6.90360843      12.33649909        5      -0.00363391       0.00118399      -0.00824977
Al       5.62832722       9.38283979      12.33580282        5      -0.00265711      -0.00809335      -0.02300465
Al       8.49719403       9.38739644      12.32872207        5       0.00456185      -0.01824552      -0.01580028
Al      11.34813238       9.38224644      12.32855830        5      -0.00194188      -0.00192687      -0.03083658
Al      14.21761470       9.38291001      12.31808660        5       0.00121160       0.00077769      -0.00007615
Al       1.34651699       0.26462697      14.59833274        4       0.00058298      -0.00374921       0.02465551
Al       4.22128400       0.26223472      14.62131381        4      -0.00743204       0.00015700       0.00321825
Al       7.06960276       0.24501441      14.61333855        4       0.00971997       0.01306351       0.00958533
Al       9.93274403       0.27828509      14.58445185        4       0.00115928      -0.00876967       0.02649341
Al       2.78948083       2.74919066      14.62917102        4      -0.00131557      -0.00128501       0.00497424
Al       5.64639972       2.73679977      14.61803705        4       0.00124819       0.00404110       0.01169618
Al       8.49773334       2.76278015      14.62599714        4       0.00411332      -0.01031349       0.01056807
Al      11.37182290       2.74890866      14.63137535        4      -0.00192758      -0.00151885       0.00497880
Al       4.21760230       5.22450437      14.65036642        4      -0.00038480       0.00128520       0.00319427
Al       7.06836351       5.23630407      14.65426545        4      -0.00229121      -0.00278572      -0.01111894
Al       9.93048282       5.22395895      14.65441101        4       0.00202711       0.00153652      -0.00517243
Al      12.79864168       5.21872260      14.60888096        4       0.00469097       0.00317182       0.02080783
Al       5.64151953       7.70219310      14.64651593        4      -0.00355729       0.00789927       0.00617718
Al       8.50503113       7.70507150      14.65396532        4      -0.00107760       0.00341661       0.00138751
Al      11.36762363       7.71526409      14.62001579        4       0.00158492      -0.00745302       0.01279455
Al      14.21778583       7.70059482      14.61100938        4       0.01595051       0.00406633       0.02351337
Al       2.80010507       1.03168413      16.93244466        3      -0.00622107       0.00254070      -0.00773270
Al       5.66161398       1.03858688      16.93444275        3       0.00340208       0.01049419      -0.01700055
Al       8.52843036       1.04177143      16.92773888        3       0.00386305       0.00207798      -0.02099239
Al      11.38313083       1.03479266      16.93263124        3       0.00518902      -0.00926593      -0.01945293
Al       4.23755557       3.51992827      16.95879368        3       0.00053103       0.01019428      -0.00705909
Al       7.08131412       3.56105640      16.94285126        3       0.00154184      -0.01817673       0.00156948
Al       9.94188418       3.53063279      16.96975416        3      -0.00178474       0.00011601      -0.03246169
Al      12.81450946       3.51529628      16.93987120        3       0.01044567       0.01137670      -0.01951414
Al       5.65844260       6.02236678      16.97701974        3      -0.02288982       0.00182234       0.00657181
Al       8.49148704       6.01254170      16.95988205        3       0.02972817       0.01940685       0.00767600
Al      11.38665642       6.01493197      16.93235299        3       0.00162945       0.00337838      -0.01058283
Al      14.25468776       6.00790437      16.94445643        3       0.00454195       0.00498276       0.00035290
Al       7.08161910       8.47145205      16.98733000        3       0.00820216       0.01946893      -0.01104588
Al       9.95354355       8.49574427      16.95289416        3      -0.00114624      -0.00772875      -0.01362655
Al      12.82759024       8.49630031      16.93995605        3       0.00244783      -0.00129545       0.00088523
Al      15.69477370       8.47853737      16.98093922        3      -0.01593207       0.00003536      -0.03296680
Al       1.36627164       1.85265683      19.18812521        2       0.00865326       0.00627008       0.02109356
Al       4.25098995       1.84056630      19.21168413        2      -0.00462341       0.00737104       0.02462916
Al       7.12683590       1.86169925      19.17180541        2      -0.00804911       0.00682041       0.02137262
Al       9.99348444       1.83736015      19.21118479        2      -0.00206441      -0.00278657       0.00638057
Al       2.81365827       4.36154288      19.21924516        2       0.00157643      -0.00252669       0.00634569
Al       5.67469871       4.39736514      19.27338336        2      -0.00688417      -0.00403890       0.02475307
Al       8.51463400       4.38626015      19.25790362        2       0.01522351      -0.00682965      -0.00909975
Al      11.40440391       4.36687026      19.18547170        2       0.00120161      -0.00533029       0.01580570
Al       4.24268490       6.83731922      19.36637416        2      -0.00150272      -0.00279015       0.01345474
Al       7.07325826       6.81509978      19.33815852        2       0.01014874       0.01453518      -0.00130154
Al       9.97618379       6.83462280      19.20291576        2      -0.00217047       0.00791653       0.01728727
Al      12.84492190       6.83501812      19.19920610        2      -0.00393050       0.00866798       0.01454612
Al       5.65142951       9.29005349      19.28990597        2      -0.00154427       0.00008612       0.01136826
Al       8.55370982       9.30568242      19.25689696        2      -0.00132239      -0.00236257       0.00820224
Al      11.40173758       9.31202896      19.22448032        2      -0.00212221      -0.00016520      -0.00265113
Al      14.28314769       9.32298155      19.25407941        2       0.00146005       0.00338863       0.00579085
Al       1.36271236       0.24848017      21.48987929        1      -0.00483798       0.00167630       0.05080349
Al       4.15289042       0.21961524      22.00859205        1       0.01453798       0.00883425      -0.03588573
Al       7.06095725       0.26298543      21.47561900        1       0.00188912      -0.00298210      -0.02481758
Al      10.05901359       0.37758311      22.21760694        1      -0.01093120      -0.00963814      -0.01503003
Al       2.88086694       2.73690563      21.51912033        1      -0.01460585      -0.00403011       0.01571138
Al       5.72525340       2.73195578      21.45230399        1      -0.01578618      -0.00322816       0.07423143
Al       8.62955233       2.65708231      21.42308886        1      -0.03646036       0.02159789       0.01632678
Al      11.42697042       2.74602630      21.49543514        1       0.01207677      -0.01048268      -0.03234239
Al       4.20389069       5.22054585      21.93894807        1       0.00255523      -0.01106763      -0.00805089
Al       7.27208530       5.07083929      21.75780859        1      -0.05476202       0.02555097      -0.03538406
Al      10.07552230       5.20572165      21.54630594        1      -0.03317140      -0.00682954      -0.01071107
Al      12.84450005       5.19360244      21.53099517        1       0.01596687       0.00971740      -0.00467737
Al       5.55938157       7.82659433      21.96612959        1       0.00692512      -0.00132727      -0.01547251
Al       8.45106563       7.59230397      21.61107078        1      -0.00127145       0.00855376       0.00516232
Al      11.41666961       7.66477360      21.57191195        1      -0.00910353       0.01627174       0.00008489
Al      14.23835238       7.74602408      21.62309949        1       0.00774298       0.00534739      -0.00475626
C       -1.12306165       4.21116394      25.32783391        0      -0.06261332      -0.06698173      -0.01851934
C       -0.79626812       2.92977067      24.88403036        0       0.11570980      -0.10042261      -0.05589021
C       -1.84168486       2.01676719      24.67910605        0      -0.02991391       0.13941644       0.04620881
N       -1.84953296       0.70479202      24.21672941        0      -0.17272061       0.01218003       0.03865914
N       -3.13877423       0.29867402      24.51818920        0      -0.12478612       0.27688384       0.02528402
N       -3.98488311       1.29496017      24.82446230        0       0.19873352      -0.40038979      -0.03043656
C       -3.18502125       2.38135074      24.99381128        0       0.05547877      -0.20803639      -0.02041938
C       -3.51480182       3.67510946      25.44355344        0       0.15474531       0.12716065      -0.01675538
C       -2.46963413       4.57393364      25.60533724        0      -0.02429019      -0.09109691       0.01824392
H       -0.33375316       4.95000919      25.46889807        0       0.02022791       0.01211996      -0.00540920
H        0.23661670       2.61392623      24.69599158        0      -0.07164196       0.10578667       0.02022776
H       -3.49378252      -0.59245884      24.15717928        0       0.00292218       0.00538000      -0.00785459
H       -4.55392330       3.94781512      25.62601471        0      -0.00735472       0.00486817       0.01174184
H       -2.67796673       5.58040265      25.97121315        0       0.01910858       0.01537122      -0.02446853
