110
Lattice="11.45512985522207 0.0 0.0 5.727564927611035 9.92043345827187 0.0 0.0 0.0 31.691342951089922" Properties=species:S:1:pos:R:3:tags:I:1:forces:R:3 energy=-461.8995361328125 free_energy=-461.8995361328125 stress="0.0049386462196707726 3.016553819179535e-06 -1.3783574104309082e-07 3.016553819179535e-06 0.0049732401967048645 -1.1282972991466522e-06 -1.3783574104309082e-07 -1.1282972991466522e-06 0.004759673494845629" pbc="T T F"
Al       2.36463758       1.21593745      10.01294383        6      -0.00197937      -0.00089515      -0.00201051
Al       5.21917165       1.21501680      10.02353065        6       0.00140296       0.00018830      -0.00064757
Al       8.06646872       1.23898624      10.01018267        6       0.00278553      -0.00107223      -0.00154546
Al      10.93049233       1.24761383       9.96900670        6       0.00230008      -0.00381692       0.00083237
Al       3.75138319       3.69042222      10.02111326        6       0.00244556       0.00107387       0.00023833
Al       6.60284005       3.71975887       9.97738163        6       0.00400827      -0.00215284       0.00064495
Al       9.46797769       3.73007574       9.94584277        6       0.00277096      -0.00443410       0.00240330
Al      12.34012882       3.70384205      10.00208779        6       0.00423082      -0.00330910      -0.00178535
Al       5.12358645       6.19178991       9.94807058        6       0.00820708      -0.00136103       0.00044981
Al       7.98274366       6.19623923       9.91065333        6       0.00752897      -0.00032939       0.00562526
Al      10.85964060       6.17769269      10.00006796        6       0.00737204      -0.00053665      -0.00082035
Al      13.72889407       6.17708279       9.99852285        6       0.01265534      -0.00375923      -0.00870165
Al       6.59106397       8.67550765       9.96736419        6       0.00296470       0.00040489       0.00304560
Al       9.46919762       8.65708520      10.00458528        6       0.00211789       0.00004613       0.00219223
Al      12.33499752       8.65799371       9.99156831        6       0.00302067      -0.00011753       0.00023022
Al      15.18940388       8.67769174      10.00189387        6       0.00606203      -0.00310985      -0.00494845
Al       1.02374026       1.98612724      12.37907964        5       0.00093565       0.01910031      -0.01583173
Al       3.88970456       1.99836060      12.37792959        5       0.00537668       0.00194587      -0.00072773
Al       6.75890329       1.99426705      12.37330076        5       0.00426242       0.01401354      -0.00803805
Al       9.62434234       2.00199195      12.36290113        5       0.00000988       0.01301637      -0.01492155
Al       2.44623602       4.48004617      12.37706877        5       0.01181848      -0.00220155      -0.00961734
Al       5.31371109       4.48916154      12.35497178        5       0.00554285      -0.00028273       0.00770089
Al       8.17945587       4.49527433      12.34903228        5       0.00843555      -0.01031934      -0.00967197
Al      11.04596622       4.48549070      12.37495377        5      -0.01082384      -0.00521548      -0.00447925
Al       3.88682159       6.95534790      12.35834635        5       0.00392856       0.00423917       0.00570594
Al       6.75125732       6.95879045      12.34502027        5       0.00182051       0.00506425       0.00326359
Al       9.60546544       6.95630445      12.38754941        5      -0.00341326       0.00712203      -0.01464811
Al      12.47407181       6.95921559      12.37000209        5      -0.00274476       0.00438569      -0.00179074
Al       5.32688881       9.44225121      12.37033849        5       0.00134080      -0.00886947      -0.01996655
Al       8.18417422       9.44734319      12.38108686        5       0.00860146      -0.02483067      -0.01793751
Al      11.05036025       9.43658072      12.37950777        5       0.00165334      -0.00183806      -0.01492412
Al      13.91337307       9.43769274      12.36714796        5       0.00264169       0.00284124       0.00359422
Al       1.11992064       0.29912682      14.65129743        4       0.00045534      -0.00361434       0.02883449
Al       3.99285295       0.29698100      14.66277359        4      -0.00366886       0.00252031       0.00543104
Al       6.85017400       0.29319983      14.65678453        4       0.00300934       0.00400552       0.00442996
Al       9.70785675       0.31496132      14.63212457        4       0.00296328      -0.00917687       0.02313740
Al       2.55813336       2.78481328      14.65932023        4       0.00131222      -0.00074486       0.00573855
Al       5.42517752       2.78278258      14.64090883        4      -0.00141503       0.00228387       0.01524883
Al       8.28190475       2.80596186      14.64551658        4       0.00347642      -0.00985930       0.01069091
Al      11.15164818       2.78818895      14.67290978        4      -0.00522233      -0.00102270       0.00011194
Al       3.99162025       5.26009045      14.67113300        4       0.00020395       0.00133510      -0.00071460
Al       6.84960658       5.26921035      14.66187457        4      -0.00398282      -0.00018871      -0.00610332
Al       9.70187326       5.26378895      14.68626463        4       0.00663699      -0.00049738      -0.01232011
Al      12.56485352       5.26297162      14.64181306        4       0.00405959       0.00199737       0.02211999
Al       5.41534369       7.73815744      14.65838332        4      -0.00271953       0.00319619       0.00565828
Al       8.26544284       7.73530328      14.68641771        4       0.00202618       0.00476036       0.00031927
Al      11.13212634       7.75193154      14.65850005        4       0.00474739      -0.00714279       0.00997214
Al      13.98430079       7.72944199      14.63607999        4       0.01913429       0.00774965       0.02460013
Al       2.67784767       1.06238882      16.96212057        3      -0.00582234      -0.00421722      -0.00773516
Al       5.54580102       1.06819088      16.95676973        3      -0.00231975       0.00740059      -0.01687983
Al       8.40975516       1.07168055      16.94468170        3       0.00206296       0.00352670      -0.01533251
Al      11.26893040       1.07047330      16.96362386        3       0.00207731      -0.00779072      -0.02361907
Al       4.11174482       3.54342151      16.96044610        3      -0.00313400       0.01153843      -0.00078082
Al       6.96051105       3.57397082      16.95795815        3       0.00391068      -0.01116153      -0.00478065
Al       9.82300793       3.55660468      16.99184805        3      -0.00535038       0.00489414      -0.02550579
Al      12.69291814       3.55292500      16.95580895        3       0.00704661       0.01135449      -0.01516431
Al       5.53817554       6.03993793      16.98589946        3      -0.01433452       0.00314726      -0.00342414
Al       8.36863554       6.02539151      16.98844306        3       0.02536558       0.02027010       0.01308460
Al      11.25955289       6.04834025      16.96621892        3      -0.00252031      -0.00027479      -0.01018280
Al      14.12544546       6.03584655      16.96235498        3       0.00497281       0.00531270      -0.00668078
Al       6.95276136       8.49121663      17.00961178        3       0.01805267       0.01742312      -0.01193939
Al       9.83118227       8.51504526      16.97461312        3      -0.00435268      -0.00964481      -0.01411733
Al      12.71203193       8.52120065      16.96953553        3      -0.00025504      -0.00411332      -0.01312293
Al      15.57995606       8.51592331      16.98764871        3      -0.01557496      -0.00067685      -0.03225780
Al       1.30983338       1.90358912      19.19823158        2       0.00436736       0.00088941       0.01940156
Al       4.19201728       1.87589534      19.21287172        2      -0.00918555      -0.00499080       0.03880815
Al       7.06771170       1.88228165      19.19657069        2      -0.00528553      -0.00280726       0.02191354
Al       9.93033926       1.85722646      19.22835334        2      -0.00011127       0.00082881       0.00908861
Al       2.75213549       4.39424772      19.23495966        2       0.00171777       0.00017414       0.00066358
Al       5.61917424       4.39692329      19.26499704        2      -0.00372625      -0.00626643       0.01371138
Al       8.45716836       4.37805798      19.28466252        2       0.01467541      -0.00489127      -0.00230904
Al      11.34642951       4.38320763      19.20730828        2      -0.00009909      -0.00261806       0.00682602
Al       4.18515535       6.86889977      19.28199233        2       0.00125151       0.00503422       0.00817865
Al       7.06735889       6.82508277      19.35213402        2       0.00436482       0.01332392       0.00088855
Al       9.90746813       6.85787682      19.25351494        2       0.00040850       0.00670120       0.01944296
Al      12.78436497       6.84873199      19.23599021        2      -0.00530417       0.00953435       0.00950385
Al       5.61337077       9.33701481      19.27737495        2      -0.00046868       0.00315729       0.00768099
Al       8.52431780       9.31023637      19.27619483        2      -0.00510696      -0.00045497       0.01850269
Al      11.35407195       9.32166962      19.22839138        2      -0.00871456       0.00313292       0.01863485
Al      14.23781466       9.33924407      19.26138470        2      -0.00260021       0.00426440       0.00668070
Al       1.45799607       0.27951168      21.44932848        1      -0.00819881       0.00482583       0.04372405
Al       4.20318207       0.32083584      22.04915429        1       0.01272320       0.00089652      -0.02587525
Al       7.07534101       0.25465750      21.51533556        1       0.00508494      -0.00389752      -0.01785247
Al      10.22048201       0.20829351      22.04276613        1      -0.00994244       0.00118022      -0.01948315
Al       2.86769473       2.79295733      21.50868257        1      -0.02004309      -0.00795651       0.00754404
Al       5.71757517       2.72431734      21.47312910        1      -0.01419269       0.01394464       0.08372485
Al       8.63795917       2.59876430      21.50144901        1      -0.03037115       0.01397848       0.01114959
Al      11.42078289       2.80124801      21.54278222        1       0.01527609      -0.01885928      -0.04109292
Al       4.34425203       5.29200051      21.63800764        1      -0.00923292      -0.01460468       0.01276354
Al       7.29974571       5.05576324      21.78078962        1      -0.04833049       0.02121238      -0.03864153
Al      10.08419298       5.22252475      21.54593328        1      -0.02670456      -0.00562252      -0.00225348
Al      12.88125436       5.22156768      21.58296066        1       0.00841014       0.00824893      -0.00560082
Al       5.73315300       7.69517966      21.64149012        1       0.00562144      -0.00341013      -0.01922017
Al       8.51966534       7.63820322      22.01885548        1      -0.00715580       0.00144756      -0.01518961
Al      11.45143579       7.67295484      21.58524157        1      -0.01256505       0.01848744      -0.00057211
Al      14.30974016       7.75350071      21.62559058        1      -0.00307150       0.00512563      -0.00631083
C        0.48156529       3.55936431      25.12840356        0      -0.08537226       0.02602647      -0.00005375
C        0.42234740       2.23864102      24.68424514        0       0.08738299      -0.09047939      -0.05186895
C       -0.84756287       1.66017746      24.53533295        0       0.01787481       0.13487059       0.04906647
N       -1.21580264       0.39547428      24.08671766        0      -0.19153148       0.02784516       0.03274219
N       -2.55077059       0.34619961      24.46271898        0      -0.17931412       0.22980672       0.02448262
N       -3.10318139       1.53361527      24.76704000        0       0.20877838      -0.36679009      -0.02059333
C       -2.03423369       2.37247185      24.88845635        0       0.04789893      -0.21065649      -0.02380672
C       -1.96253758       3.70890986      25.32954785        0       0.11323753       0.13658971      -0.02076669
C       -0.70314797       4.28691327      25.43209776        0       0.02376254      -0.13965380       0.00952105
H        1.45512743       4.04632481      25.22108403        0      -0.01604804       0.00343320      -0.00497653
H        1.32087696       1.65046838      24.45756442        0      -0.08348043       0.11361185       0.02168336
H       -3.14322601      -0.43437384      24.16098170        0       0.02150946       0.02106082      -0.00072622
H       -2.87316021       4.27366808      25.53528065        0       0.02526973      -0.02937974       0.00533979
H       -0.61345860       5.31888211      25.77023117        0       0.01841694       0.04611323      -0.01610468
