110
Lattice="11.45512985522207 0.0 0.0 5.727564927611035 9.92043345827187 0.0 0.0 0.0 31.691342951089922" Properties=species:S:1:pos:R:3:tags:I:1:forces:R:3 energy=-461.9785461425781 free_energy=-461.9785461425781 stress="0.0034751601051539183 2.0121224224567413e-06 -4.926696419715881e-07 2.0121224224567413e-06 0.0035464756656438112 2.454034984111786e-07 -4.926696419715881e-07 2.454034984111786e-07 0.0034791831858456135" pbc="T T F"
Al       2.24123673       0.67681429      10.04565999        6       0.00095311       0.00027293       0.00130102
Al       5.10589061       0.67841475      10.03356709        6       0.00075404       0.00023671       0.00141332
Al       7.97298036       0.67005081      10.04324605        6       0.00076884       0.00003354       0.00052644
Al      10.83114697       0.66535746      10.05424530        6       0.00109960       0.00037019       0.00092835
Al       3.67740474       3.15714220      10.04644773        6       0.00079872      -0.00005318      -0.00010494
Al       6.54474599       3.15147323      10.05178320        6       0.00067373       0.00013073      -0.00043380
Al       9.40232914       3.14821421      10.04513195        6       0.00107299       0.00020511       0.00038009
Al      12.26533160       3.14995154      10.04448774        6       0.00112345       0.00030788       0.00058469
Al       5.11785827       5.63120420      10.05007929        6       0.00067705      -0.00011504      -0.00092490
Al       7.98086095       5.63417704      10.04873366        6       0.00072084       0.00011317       0.00030550
Al      10.83646737       5.63107873      10.03292260        6       0.00097566       0.00039736       0.00145926
Al      13.70464356       5.63180305      10.04312267        6       0.00066978       0.00005955       0.00010388
Al       6.54874944       8.11166903      10.05064175        6       0.00066263       0.00036702       0.00081858
Al       9.40417025       8.11825622      10.02781555        6       0.00089229       0.00039307       0.00194075
Al      12.26682435       8.11523415      10.02578834        6       0.00096280       0.00007475       0.00124531
Al      15.13680000       8.10832837      10.04547512        6       0.00086226      -0.00039691      -0.00065667
Al       0.87616758       1.47783888      12.40635680        5      -0.00135714       0.00265685       0.00438253
Al       3.73607805       1.47646362      12.41073376        5      -0.00013589       0.00192385       0.00082440
Al       6.59110813       1.47756308      12.40128415        5       0.00307614       0.00162934       0.00536944
Al       9.45942446       1.48187066      12.41444896        5       0.00092658       0.00169757      -0.01797033
Al       2.30720131       3.95572116      12.39514835        5      -0.00115494       0.00166799       0.00589800
Al       5.16552383       3.95549540      12.40446651        5       0.00208999       0.00158675       0.00421645
Al       8.02714362       3.96312404      12.40285789        5       0.00223794      -0.00158999       0.00440550
Al      10.89114946       3.96424017      12.39140470        5       0.00174783      -0.00034642       0.00616343
Al       3.73554577       6.44214586      12.39240573        5       0.00197205      -0.00092093       0.00580095
Al       6.60478102       6.44081199      12.40568097        5      -0.00117141       0.00088732       0.00073927
Al       9.46100888       6.44924468      12.40315083        5       0.00128492      -0.00489037      -0.00762003
Al      12.32242820       6.44825567      12.38481330        5       0.00150698      -0.00252356       0.00592884
Al       5.17145041       8.92645202      12.40559846        5       0.00098833      -0.00385627       0.00314059
Al       8.03532546       8.92519544      12.41203689        5      -0.00143894      -0.00252307      -0.00150450
Al      10.88753178       8.92414294      12.39265137        5       0.00253121      -0.00022534       0.00591792
Al      13.75495594       8.92263243      12.38848787        5       0.00071912       0.00044237       0.00684808
Al       0.89935055      -0.18854616      14.70110402        4       0.00039033      -0.00083887      -0.01105712
Al       3.75822601      -0.18471581      14.70089856        4       0.00143920      -0.00518671      -0.01733614
Al       6.62187688      -0.19225529      14.68320753        4      -0.00053593       0.00011627      -0.02742338
Al       9.48644568      -0.18746911      14.67356056        4       0.00083744      -0.00065486       0.00213065
Al       2.33345632       2.29196130      14.69465206        4      -0.00075426      -0.00083839      -0.00162854
Al       5.19151696       2.28928837      14.69742722        4       0.00307458       0.00018115      -0.00621467
Al       8.05134731       2.29469287      14.68558573        4      -0.00219665       0.00064368      -0.00606624
Al      10.91777012       2.29227734      14.67596539        4       0.00108436       0.00071739       0.00283554
Al       3.77004381       4.76548041      14.68168044        4      -0.00182388      -0.00017134      -0.00349433
Al       6.62249957       4.77071558      14.69323934        4       0.00389437      -0.00567458      -0.01680847
Al       9.48489855       4.77697228      14.67791131        4       0.00139508      -0.00318620      -0.00904404
Al      12.35549110       4.76829845      14.66389496        4      -0.00003456       0.00012324       0.00143508
Al       5.20365355       7.24229327      14.67713348        4      -0.00407473       0.00184336       0.00041452
Al       8.05268793       7.25305202      14.69523526        4       0.00315455      -0.00046723      -0.01154307
Al      10.91672711       7.25332232      14.67008777        4       0.00081389       0.00046820       0.00151078
Al      13.78944988       7.24597086      14.66331604        4       0.00036786       0.00096539       0.00156159
Al       2.34873542       0.60868559      17.00576828        3      -0.00089308       0.00207459      -0.01049117
Al       5.21369265       0.61353199      16.98174262        3      -0.00145246       0.00308987      -0.00057828
Al       8.06226045       0.62474462      16.95668634        3       0.00413011      -0.00171323       0.00192405
Al      10.94068298       0.61219278      16.97307322        3      -0.00107922      -0.00098611      -0.00669145
Al       3.79140708       3.08002634      16.99207086        3      -0.00086252       0.00453960      -0.00353896
Al       6.64331427       3.09857415      16.99863647        3      -0.00197041      -0.00127838      -0.00223721
Al       9.49861060       3.10032237      16.96246391        3       0.00141006      -0.00071944      -0.00527178
Al      12.36736308       3.07801377      16.97165646        3       0.00500908       0.00261314      -0.00577253
Al       5.22196368       5.55506915      16.97912045        3      -0.00881329      -0.00335926      -0.00211219
Al       8.07398607       5.57329484      16.97818018        3       0.00216751      -0.00244903      -0.00720655
Al      10.93591257       5.57058959      16.95198597        3       0.00230814       0.00216078      -0.00258592
Al      13.80543256       5.56192273      16.94367165        3       0.00120189       0.00091575       0.00410335
Al       6.63704991       8.04647926      16.98686572        3       0.00235659       0.00501614      -0.00257178
Al       9.49693211       8.05910192      16.98116087        3       0.00404149      -0.00126202      -0.00970346
Al      12.36428317       8.05867273      16.94614530        3       0.00468208      -0.00366238       0.00450317
Al      15.24737360       8.05371687      16.95010861        3      -0.00333599      -0.00045087       0.00395448
Al       0.90907549       1.42577454      19.26300192        2       0.00411230       0.00008653       0.00568343
Al       3.80529783       1.43998874      19.25213918        2      -0.00168604       0.00005866       0.01273675
Al       6.64681051       1.43860926      19.25014505        2       0.00171705       0.00428880       0.01057083
Al       9.51377627       1.45048844      19.18578144        2      -0.00360471       0.00066153       0.01275192
Al       2.36369666       3.92171017      19.20938470        2      -0.00145105      -0.00287601       0.00332317
Al       5.22336262       3.88558721      19.32588457        2       0.00025506       0.00076516      -0.00023402
Al       8.09183245       3.93095512      19.25260198        2      -0.00036648      -0.00335427       0.00587393
Al      10.94965915       3.92602498      19.19532810        2      -0.00056514       0.00228517       0.00782118
Al       3.78851657       6.39696951      19.20282632        2      -0.00023389      -0.00031292      -0.00165157
Al       6.64613239       6.37933502      19.21194272        2       0.00342159       0.00592899       0.01156422
Al       9.53821031       6.40337336      19.21071737        2      -0.00371483      -0.00073107       0.00356484
Al      12.37644761       6.40329904      19.20761799        2       0.00216669       0.00040451      -0.00513828
Al       5.21528524       8.89375662      19.24816380        2       0.00290662      -0.00127931       0.00428027
Al       8.07994203       8.87620793      19.26150394        2      -0.00006136      -0.00097992       0.00931309
Al      10.95697487       8.88283107      19.21772663        2      -0.00369251       0.00087167       0.01378908
Al      13.81115054       8.89063922      19.19387851        2       0.00118736      -0.00050807       0.00888365
Al       0.83485029      -0.19742137      21.95807947        1       0.00097946      -0.00176652      -0.00217878
Al       3.78205508      -0.20145666      21.58482902        1      -0.00552643       0.00116483      -0.00590272
Al       6.63630969      -0.19257207      21.52421727        1      -0.00004079      -0.00081987       0.00400285
Al       9.46090579      -0.19592339      21.55452361        1       0.00550847       0.00336370      -0.00339550
Al       2.31029712       2.29234086      21.56393643        1      -0.00039853      -0.00367609      -0.00664525
Al       5.15287286       2.29141421      21.88582694        1      -0.00082432       0.00036311       0.00153437
Al       8.05635034       2.29187045      21.57449354        1      -0.00198543       0.00895734       0.00504026
Al      10.91732130       2.30756180      21.54319563        1       0.00078967      -0.00161496      -0.00984492
Al       3.72803092       4.78221981      21.54330696        1       0.00740694      -0.00045441      -0.00185290
Al       6.63920324       4.79555961      21.57557879        1       0.00017483       0.00131643       0.00566165
Al       9.54151636       4.77519635      21.59861820        1      -0.00402584       0.00368321      -0.00987238
Al      12.37515872       4.75531704      21.49728474        1       0.00004049       0.00018998       0.00510584
Al       5.16604381       7.23768871      21.55403176        1       0.00888518      -0.00046123      -0.00391615
Al       8.09210381       7.23864382      21.59571380        1      -0.00196385       0.00531635      -0.00728961
Al      10.95880068       7.22956410      21.52182743        1       0.00285218       0.00226743       0.00347689
Al      13.78675763       7.23488865      21.46634221        1       0.00456421       0.00031210       0.00947806
C        2.48385168       6.81492158      24.80629093        0       0.00971280      -0.05019603       0.00489788
C        2.34262454       5.43674124      24.86851782        0      -0.03269079       0.04660874      -0.00299628
C        1.02210028       4.93151727      24.96265247        0       0.22827539      -0.24836347      -0.00023091
N        0.58600986       3.64145723      24.95217877        0       0.00518870      -0.01678666      -0.00129623
N       -0.74434406       3.77292137      24.97469850        0      -0.09400427      -0.06792315      -0.00493860
N       -1.24406351       5.02347299      24.92360990        0       0.13056023      -0.00460507      -0.00500075
C       -0.11192210       5.78390183      24.94269888        0      -0.34146139       0.23986033       0.02135013
C        0.05447654       7.18854793      24.88262108        0       0.05466760       0.02551326      -0.00357535
C        1.35001645       7.68381988      24.82740069        0      -0.04058997       0.02124901       0.00130992
H        3.48073597       7.24912935      24.70579881        0       0.01955623       0.01866535      -0.00750709
H        3.19558616       4.75810851      24.80018222        0      -0.01278206       0.00150640       0.00692619
H       -1.35560008       2.97638643      24.77529765        0       0.03840846       0.01007023       0.00416754
H       -0.81374389       7.84625868      24.85542405        0      -0.01904285       0.02324560       0.00266431
H        1.51902954       8.76135291      24.76113365        0      -0.00605012      -0.01287156       0.00126774
