110
Lattice="11.45512985522207 0.0 0.0 5.727564927611035 9.92043345827187 0.0 0.0 0.0 31.691342951089922" Properties=species:S:1:pos:R:3:tags:I:1:forces:R:3 energy=-461.90301513671875 free_energy=-461.90301513671875 stress="0.004864641465246677 2.95368954539299e-06 -2.0023435354232788e-07 2.95368954539299e-06 0.00490510044619441 -1.084059476852417e-06 -2.0023435354232788e-07 -1.084059476852417e-06 0.004694776609539986" pbc="T T F"
Al       2.32969111       1.22707324      10.02256949        6       0.00076489      -0.00032808      -0.00019954
Al       5.18994946       1.22995472      10.01105920        6       0.00280109      -0.00081171      -0.00114996
Al       8.04448155       1.24056724      10.00766059        6       0.00293774      -0.00065374      -0.00034852
Al      10.90139878       1.24694285       9.97435129        6       0.00279896      -0.00160959       0.00164928
Al       3.73838490       3.70477669      10.00665181        6       0.00338895      -0.00028765      -0.00083621
Al       6.59882758       3.72531095       9.98525600        6       0.00337773      -0.00147469       0.00100372
Al       9.46042985       3.73428807       9.96850757        6       0.00249611      -0.00197073       0.00207427
Al      12.32778459       3.70936415      10.01305124        6       0.00328360      -0.00163892      -0.00078782
Al       5.13170138       6.19709912       9.95503539        6       0.00540719      -0.00125859       0.00174233
Al       7.99288023       6.20801120       9.94779621        6       0.00485872      -0.00104026       0.00346197
Al      10.86494940       6.19385442       9.99797790        6       0.00432821      -0.00079609       0.00101995
Al      13.73335502       6.18354284       9.99992636        6       0.00485481      -0.00078357      -0.00110711
Al       6.57668046       8.68275849       9.96990402        6       0.00344249      -0.00038659       0.00259335
Al       9.45056958       8.67864941       9.97086215        6       0.00315295      -0.00138932       0.00243468
Al      12.31931709       8.66827090       9.99102026        6       0.00338731      -0.00056498       0.00045368
Al      15.17696766       8.67420931       9.99857396        6       0.00367216      -0.00071419       0.00017030
Al       1.01172908       1.99305148      12.38501076        5      -0.00056071       0.01378272      -0.00826900
Al       3.87964765       1.99999007      12.37462488        5       0.00429013       0.00223550       0.00202998
Al       6.74789565       1.99783156      12.37753900        5       0.00213389       0.01162656      -0.01059197
Al       9.61084239       2.00455136      12.37073111        5       0.00106815       0.00957385      -0.01039061
Al       2.44186270       4.48317097      12.37116262        5       0.00591090      -0.00102054       0.00048098
Al       5.30585772       4.49055089      12.35941943        5       0.00525518      -0.00078134       0.00663522
Al       8.16803869       4.49577837      12.35982756        5       0.00699334      -0.00363864      -0.00124333
Al      11.03357428       4.48880092      12.37891155        5      -0.00597239      -0.00195023      -0.00153301
Al       3.87576517       6.96039712      12.36296582        5       0.00749254       0.00336936       0.00096638
Al       6.73863897       6.96440793      12.35726854        5       0.00360285       0.00332334       0.00303241
Al       9.60240778       6.96758044      12.38699528        5      -0.00774252       0.00093819      -0.02075184
Al      12.46835695       6.96424567      12.37322323        5      -0.00224550       0.00300036      -0.01090837
Al       5.31496638       9.44511145      12.37436667        5       0.00037662      -0.00819952      -0.01923178
Al       8.17405741       9.44855813      12.37573147        5       0.00938013      -0.02024934      -0.01439164
Al      11.04064721       9.44037608      12.37788547        5      -0.00051178      -0.00047312      -0.02287722
Al      13.90186068       9.44373493      12.37000248        5       0.00538978       0.00042941      -0.00207457
Al       1.11130074       0.29824961      14.65224926        4       0.00105209      -0.00295367       0.02326638
Al       3.98402641       0.29764188      14.66048542        4      -0.00404354       0.00091825       0.00497063
Al       6.83793665       0.28933590      14.65946265        4       0.00568794       0.00802527       0.00387721
Al       9.69913757       0.31495848      14.64007515        4       0.00267398      -0.00963411       0.02179400
Al       2.55297373       2.78802325      14.65952064        4      -0.00086013      -0.00269389       0.00577009
Al       5.41106072       2.78185673      14.64496306        4       0.00093567       0.00220971       0.01437079
Al       8.26801727       2.80434343      14.65405381        4       0.00510664      -0.01021161       0.00992892
Al      11.13771899       2.79257694      14.67633919        4      -0.00164106      -0.00094914       0.00241528
Al       3.98219767       5.26352584      14.66685553        4       0.00065011       0.00041010       0.00283543
Al       6.83725160       5.26944598      14.67372329        4      -0.00152983      -0.00255091      -0.01843401
Al       9.69039542       5.26635171      14.68561670        4       0.00535099      -0.00052324      -0.00377924
Al      12.55917878       5.26239803      14.63955734        4       0.00381872       0.00187212       0.02241208
Al       5.40436614       7.73476772      14.66511275        4      -0.00239248       0.00717491       0.00670295
Al       8.25835326       7.73411057      14.68795497        4       0.00301074       0.00766581      -0.00564920
Al      11.12815894       7.74772123      14.65411645        4       0.00263604      -0.00428612       0.01317087
Al      13.98293317       7.73443144      14.64267869        4       0.01495648       0.00541142       0.02170292
Al       2.67019537       1.05524852      16.96024437        3      -0.00398031      -0.00079732      -0.00445586
Al       5.53657488       1.06608458      16.95777815        3      -0.00031569       0.00626181      -0.01438640
Al       8.40379752       1.07250318      16.95269412        3       0.00186204       0.00102259      -0.02097962
Al      11.26105092       1.07002945      16.96227018        3       0.00269984      -0.00828936      -0.01605683
Al       4.09995843       3.53910013      16.96631020        3       0.00023598       0.00994289      -0.00050086
Al       6.95330055       3.57575810      16.96348359        3       0.00272835      -0.01550937      -0.00230699
Al       9.81239325       3.55934183      17.00077498        3      -0.00374229       0.00229564      -0.02913185
Al      12.68564673       3.55042206      16.95674163        3       0.00772441       0.01039630      -0.01376299
Al       5.53206750       6.03521309      16.98719289        3      -0.01728892       0.00510372       0.00601612
Al       8.36304172       6.02830602      16.99703834        3       0.02298488       0.01199881       0.01048575
Al      11.25492585       6.04049287      16.96625758        3      -0.00077033       0.00301885      -0.01135421
Al      14.12441543       6.03402658      16.96368849        3       0.00247904       0.00387486      -0.00421556
Al       6.95330297       8.48759280      17.00942647        3       0.00809687       0.01731412      -0.00608047
Al       9.82633391       8.50756241      16.97082206        3      -0.00028983      -0.00385631      -0.00764045
Al      12.70332091       8.52072621      16.96615644        3       0.00134223      -0.00377987      -0.00298928
Al      15.57534605       8.51044616      17.00033651        3      -0.01393914       0.00264817      -0.03352371
Al       1.30755619       1.90419384      19.19929197        2       0.00367175      -0.00126314       0.01412774
Al       4.18799299       1.85997934      19.21937329        2      -0.00864407       0.00166232       0.02590525
Al       7.06159721       1.87330428      19.19997376        2      -0.00422793       0.00215955       0.02193749
Al       9.93002497       1.85840658      19.23471955        2      -0.00180216      -0.00076964       0.00571030
Al       2.75168817       4.39462628      19.24337727        2       0.00067716      -0.00145759      -0.00325936
Al       5.61558337       4.38785402      19.27035878        2      -0.00834778       0.00013110       0.01513990
Al       8.45145852       4.37883592      19.29910515        2       0.01301259      -0.00732587      -0.00971034
Al      11.34306788       4.37871791      19.20646177        2      -0.00034118      -0.00096979       0.00734767
Al       4.18602746       6.86627878      19.29310593        2      -0.00112949       0.00170648       0.00456976
Al       7.05772800       6.82446203      19.36215615        2       0.00795660       0.01141177      -0.00385694
Al       9.90975397       6.85634258      19.25408895        2      -0.00179474       0.00380812       0.01219952
Al      12.78134744       6.84863449      19.23717888        2      -0.00403650       0.00719056       0.00544145
Al       5.60700833       9.33763171      19.28134362        2      -0.00014651       0.00210429       0.00388929
Al       8.51785996       9.30332975      19.27575337        2      -0.00185463      -0.00063567       0.00924488
Al      11.34795225       9.31821512      19.23354537        2      -0.00558349       0.00166325       0.00807283
Al      14.23153926       9.34227736      19.26809553        2      -0.00075657       0.00223796       0.00305149
Al       1.45976544       0.27398841      21.44762649        1      -0.01278314       0.00100977       0.04374279
Al       4.20376792       0.29826228      22.03556636        1       0.00598867       0.00515574      -0.00717350
Al       7.06928282       0.24512644      21.52278392        1       0.00530057      -0.00158861      -0.01711747
Al      10.22164095       0.20414099      22.03809024        1      -0.00752731      -0.00057411      -0.01716777
Al       2.85878568       2.77886511      21.51158606        1      -0.01428561      -0.00786022       0.00792150
Al       5.71533365       2.71955015      21.47449615        1      -0.01531340       0.00959327       0.08017093
Al       8.63610030       2.59105496      21.50854167        1      -0.03213983       0.01501810       0.01043455
Al      11.42235167       2.79512665      21.54024517        1       0.00915848      -0.01477953      -0.03770178
Al       4.31589208       5.26952923      21.65990933        1      -0.00451234      -0.00691946       0.00699917
Al       7.28918705       5.05097118      21.78280692        1      -0.05154621       0.02118674      -0.03838124
Al      10.07541492       5.22352874      21.55476332        1      -0.02475697      -0.00922397      -0.00412985
Al      12.87179628       5.20847803      21.58622066        1       0.00719707       0.00785459      -0.00469449
Al       5.71209012       7.67218909      21.65297631        1       0.00518728       0.00179651      -0.01715283
Al       8.49640575       7.63547063      22.00301755        1      -0.00679281       0.00046268      -0.00100115
Al      11.45434912       7.65728133      21.58825952        1      -0.01267470       0.01823076       0.00017166
Al      14.29595029       7.74675343      21.62519999        1       0.00051029       0.00485658      -0.00322468
C        0.54301635       3.54619820      25.10656274        0      -0.06599443      -0.01152547      -0.01573868
C        0.46332581       2.22179286      24.67367726        0       0.10824566      -0.06568639      -0.03981773
C       -0.81309594       1.65906021      24.53129806        0       0.02885156       0.13750969       0.04164110
N       -1.20133384       0.40061567      24.08314604        0      -0.17857620       0.01710487       0.03232622
N       -2.53623415       0.37532977      24.45983760        0      -0.18474115       0.21120071       0.02475089
N       -3.07144139       1.57312872      24.75746168        0       0.20632437      -0.37515250      -0.02231252
C       -1.98773781       2.39237515      24.88003487        0       0.02658022      -0.19866984      -0.02345857
C       -1.89670376       3.72987466      25.30971029        0       0.14338729       0.14736611      -0.01293170
C       -0.62952097       4.29281982      25.40436077        0       0.00596203      -0.11964832       0.01512915
H        1.52424303       4.01877582      25.19017321        0      -0.01042996       0.00712863      -0.00403754
H        1.35376372       1.62098791      24.45012047        0      -0.07278596       0.10438345       0.01595135
H       -3.13991001      -0.39874631      24.16579961        0       0.01206367       0.01127404      -0.00460252
H       -2.79793905       4.30773522      25.51388955        0      -0.00443956      -0.00980650       0.00760555
H       -0.52470518       5.32798572      25.72848793        0       0.01283401       0.04086231      -0.01354317
