110
Lattice="11.45512985522207 0.0 0.0 5.727564927611035 9.92043345827187 0.0 0.0 0.0 31.691342951089922" Properties=species:S:1:pos:R:3:tags:I:1:forces:R:3 energy=-461.8290710449219 free_energy=-461.8290710449219 stress="0.004735905677080154 3.189314156770706e-06 -1.1362135410308838e-07 3.189314156770706e-06 0.004763831850141287 -1.4058314263820648e-06 -1.1362135410308838e-07 -1.4058314263820648e-06 0.004513924475759268" pbc="T T F"
Al       2.30793641       1.14139098      10.03232472        6       0.00063550       0.00080124      -0.00032568
Al       5.15370728       1.14582813      10.00538759        6       0.00289052       0.00045885      -0.00058173
Al       8.01003640       1.16878714       9.98365957        6       0.00341913      -0.00024863       0.00001996
Al      10.88021118       1.17042497       9.99001745        6       0.00283977      -0.00085777       0.00064849
Al       3.71219824       3.63268260      10.00272371        6       0.00340624      -0.00048717      -0.00120737
Al       6.56310155       3.64542701       9.97516590        6       0.00353510      -0.00068303       0.00102861
Al       9.43427702       3.65230179       9.97136084        6       0.00269518      -0.00111080       0.00174947
Al      12.30932226       3.63203560      10.01634427        6       0.00299099      -0.00075264      -0.00049973
Al       5.10953767       6.12716658       9.96205985        6       0.00511749      -0.00057649       0.00168919
Al       7.96627797       6.12051256       9.95006693        6       0.00563573      -0.00010662       0.00324438
Al      10.84938915       6.10756081      10.01893421        6       0.00388573       0.00006771       0.00019393
Al      13.71873567       6.11627248       9.99993375        6       0.00326452      -0.00037101      -0.00065074
Al       6.55481579       8.60813855       9.97041491        6       0.00378109      -0.00053770       0.00250474
Al       9.42851330       8.57939589      10.01908501        6       0.00287182      -0.00006231       0.00052203
Al      12.29234064       8.59631808       9.97435019        6       0.00331378      -0.00034131       0.00094952
Al      15.15203522       8.60983415       9.97168370        6       0.00352187      -0.00011299       0.00101208
Al       1.02067281       1.97231170      12.38811218        5      -0.00076958       0.01221979      -0.00749416
Al       3.88866361       1.98068779      12.37107438        5       0.00387063       0.00194114       0.00292186
Al       6.75464994       1.97566097      12.36631486        5       0.00176519       0.01041944      -0.00954844
Al       9.61404749       1.98301030      12.36811649        5       0.00189044       0.00831113      -0.00856615
Al       2.45161272       4.46230481      12.36842549        5       0.00519422      -0.00071143       0.00042609
Al       5.31430813       4.47092410      12.35299461        5       0.00454055      -0.00102263       0.00596039
Al       8.17411299       4.47143485      12.35688445        5       0.00582247      -0.00264493      -0.00109168
Al      11.04090324       4.46327348      12.38341757        5      -0.00474383      -0.00069723      -0.00185152
Al       3.88287365       6.94433167      12.35755370        5       0.00720683       0.00243896       0.00051100
Al       6.74736236       6.94409605      12.35734067        5       0.00306627       0.00281914       0.00162563
Al       9.60986576       6.94099907      12.39856963        5      -0.00769266       0.00155094      -0.01962738
Al      12.47823538       6.94354855      12.37137637        5      -0.00212931       0.00261646      -0.00982616
Al       5.32192913       9.42360693      12.37168098        5       0.00065369      -0.00738367      -0.01635163
Al       8.18006768       9.42572894      12.39026871        5       0.00847511      -0.01921728      -0.01344382
Al      11.05115656       9.41874789      12.37602867        5       0.00033440      -0.00168569      -0.02252883
Al      13.91095760       9.42335245      12.35529426        5       0.00483971       0.00002053      -0.00124240
Al       1.12342816       0.29231927      14.65914980        4       0.00023076      -0.00318527       0.02185109
Al       3.99989903       0.29579598      14.65872486        4      -0.00424351       0.00060686       0.00485220
Al       6.85255317       0.28581568      14.64867649        4       0.00500681       0.00649922       0.00473353
Al       9.71096842       0.30694769      14.63638144        4       0.00267625      -0.00941607       0.02125278
Al       2.56599283       2.78378351      14.65800823        4      -0.00054055      -0.00318266       0.00472464
Al       5.42565919       2.77982021      14.63866988        4       0.00053518       0.00139349       0.01280096
Al       8.27886864       2.79727622      14.65054721        4       0.00504776      -0.01024705       0.00913019
Al      11.14862530       2.78529648      14.67447043        4      -0.00224360      -0.00113211       0.00265650
Al       3.99616768       5.26019721      14.65840863        4       0.00009322       0.00029484       0.00276200
Al       6.85106645       5.26475905      14.66924723        4      -0.00180644      -0.00322902      -0.01653533
Al       9.70193187       5.25826458      14.68729428        4       0.00626715      -0.00099189      -0.00509805
Al      12.57174215       5.25636394      14.63727816        4       0.00449177       0.00190816       0.02142612
Al       5.41692846       7.72774856      14.66165941        4      -0.00188996       0.00741155       0.00643991
Al       8.27311875       7.72842269      14.69251201        4       0.00230524       0.00755923      -0.00621711
Al      11.14335076       7.74235659      14.65299092        4       0.00270002      -0.00343450       0.01228666
Al      13.99815599       7.73085022      14.63939989        4       0.01417477       0.00537877       0.01993277
Al       2.68856380       1.06562666      16.95764288        3      -0.00323172      -0.00009901      -0.00405277
Al       5.55688905       1.07769732      16.95062728        3      -0.00114927       0.00667932      -0.01351322
Al       8.42237819       1.08441403      16.94657832        3       0.00084635       0.00117713      -0.01961475
Al      11.27786657       1.08263075      16.95881510        3       0.00225627      -0.00870871      -0.01692574
Al       4.11840507       3.54879333      16.95935573        3       0.00000583       0.00969441      -0.00006208
Al       6.97124132       3.58688958      16.95971426        3       0.00194857      -0.01601912      -0.00302740
Al       9.82896533       3.57156535      16.99707488        3      -0.00336655       0.00066787      -0.02829430
Al      12.70276955       3.56317250      16.95104462        3       0.00725915       0.00942476      -0.01325382
Al       5.54823575       6.04558304      16.97973171        3      -0.01632397       0.00418737       0.00603268
Al       8.38010413       6.03858162      16.99414257        3       0.02150907       0.01208083       0.01001112
Al      11.27286490       6.05378602      16.96057320        3      -0.00181010       0.00286837      -0.00966657
Al      14.14188101       6.04516213      16.95503026        3       0.00245247       0.00383219      -0.00314257
Al       6.97136672       8.49953435      17.00491563        3       0.00721879       0.01482920      -0.00428895
Al       9.84535372       8.51966059      16.96691287        3      -0.00069986      -0.00379609      -0.00646589
Al      12.72179873       8.53485163      16.95903349        3       0.00126882      -0.00442605      -0.00345798
Al      15.59399736       8.52210131      16.99288043        3      -0.01370045       0.00253082      -0.03134268
Al       1.32774539       1.92468604      19.19160170        2       0.00266302      -0.00198299       0.01336260
Al       4.20695778       1.87484306      19.21508160        2      -0.00804228       0.00169433       0.02366553
Al       7.08082526       1.88873923      19.19637169        2      -0.00451059       0.00253399       0.01996676
Al       9.94827895       1.87583995      19.22952665        2      -0.00176448      -0.00089500       0.00526077
Al       2.77023210       4.41240323      19.23313970        2       0.00045927      -0.00127931      -0.00374404
Al       5.63314431       4.40356242      19.26363172        2      -0.00846222       0.00077631       0.01437362
Al       8.47054359       4.39432968      19.29346236        2       0.01225655      -0.00705544      -0.00912613
Al      11.35994687       4.39723441      19.19711892        2      -0.00020773      -0.00099554       0.00745049
Al       4.20470746       6.88472769      19.28149344        2      -0.00142601       0.00091393       0.00463658
Al       7.07721571       6.84065514      19.35266556        2       0.00723169       0.01040684      -0.00418360
Al       9.92613665       6.87244374      19.25028862        2      -0.00077442       0.00356068       0.01156189
Al      12.79955875       6.86739752      19.22593565        2      -0.00372802       0.00648137       0.00542315
Al       5.62692126       9.35832199      19.27063761        2      -0.00047817       0.00137873       0.00454791
Al       8.53866172       9.31739214      19.27251549        2      -0.00216512      -0.00049097       0.00813838
Al      11.36721269       9.33440730      19.22549822        2      -0.00539489       0.00211997       0.00818649
Al      14.25061611       9.36057647      19.25780432        2      -0.00104717       0.00181742       0.00227861
Al       1.48206022       0.29608756      21.43671960        1      -0.01274387       0.00030777       0.04196566
Al       4.22135547       0.32292789      22.03110482        1       0.00637958       0.00447740      -0.00791742
Al       7.08959983       0.26540626      21.51835692        1       0.00497640      -0.00097377      -0.01644690
Al      10.24587923       0.22174308      22.02105829        1      -0.00622128      -0.00095943      -0.01628933
Al       2.87837999       2.80051830      21.50301775        1      -0.01331890      -0.00726793       0.00742381
Al       5.73569284       2.73949926      21.46751172        1      -0.01472776       0.00934780       0.07450862
Al       8.65648474       2.61143330      21.50517759        1      -0.03070326       0.01308997       0.01004382
Al      11.43940187       2.81508700      21.52921561        1       0.00915650      -0.01256647      -0.03552718
Al       4.32637153       5.29018007      21.65027434        1      -0.00315734      -0.00577695       0.00698930
Al       7.30700570       5.07286966      21.77269318        1      -0.04654519       0.01902142      -0.03412366
Al      10.09499543       5.24537164      21.55225315        1      -0.02313292      -0.00925986      -0.00449050
Al      12.88764928       5.22979128      21.57389994        1       0.00664480       0.00749018      -0.00403479
Al       5.73230032       7.68984850      21.63233877        1       0.00409858       0.00118525      -0.01623840
Al       8.51197601       7.65926119      21.99975788        1      -0.00613121       0.00102114      -0.00118837
Al      11.47086492       7.68328013      21.57589158        1      -0.01268897       0.01737072      -0.00016836
Al      14.31211043       7.76504577      21.61406941        1       0.00113314       0.00511892      -0.00254944
C        0.58303378       3.56856135      25.06275833        0      -0.06003413      -0.01401109      -0.01632050
C        0.50786576       2.23940267      24.64320047        0       0.10269637      -0.06113390      -0.03716712
C       -0.76645197       1.66944427      24.50913179        0       0.02298290       0.12902133       0.03766416
N       -1.15196980       0.40745953      24.06674770        0      -0.16523667       0.01553925       0.03035603
N       -2.48649925       0.37958870      24.44581662        0      -0.16649467       0.19716409       0.02317983
N       -3.02393811       1.57678207      24.73952029        0       0.19032620      -0.34648299      -0.01959834
C       -1.94308937       2.40093672      24.85523047        0       0.02569599      -0.18713260      -0.02160752
C       -1.85634667       3.74330135      25.27130600        0       0.13673164       0.13698867      -0.01125865
C       -0.59145064       4.31295666      25.35684725        0       0.00317128      -0.11049888       0.01402443
H        1.56245891       4.04678598      25.13538927        0      -0.00912695       0.00706915      -0.00416989
H        1.40062446       1.64178743      24.42158662        0      -0.06825814       0.09712685       0.01483809
H       -3.08864982      -0.39780913      24.15754044        0       0.01077258       0.01026493      -0.00432808
H       -2.75959875       4.31945336      25.47096666        0      -0.00598070      -0.00723662       0.00691475
H       -0.49053747       5.35295022      25.66685248        0       0.01170853       0.03750927      -0.01239057
