110
Lattice="11.45512985522207 0.0 0.0 5.727564927611035 9.92043345827187 0.0 0.0 0.0 31.691342951089922" Properties=species:S:1:pos:R:3:tags:I:1:forces:R:3 energy=-461.8397216796875 free_energy=-461.8397216796875 stress="0.0047948891296982765 3.146938979625702e-06 -1.2293457984924316e-07 3.146938979625702e-06 0.00482412613928318 -1.3299286365509033e-06 -1.2293457984924316e-07 -1.3299286365509033e-06 0.004583248868584633" pbc="T T F"
Al       2.31074045       1.14559535      10.02994830        6       0.00076969       0.00098421       0.00016222
Al       5.15634370       1.14926881      10.00642549        6       0.00267077       0.00074862      -0.00015050
Al       8.01270560       1.17313076       9.98599385        6       0.00338921      -0.00037276      -0.00014028
Al      10.88228709       1.17580922       9.99125256        6       0.00280321      -0.00102326       0.00048903
Al       3.71356012       3.63717956      10.00251963        6       0.00350204      -0.00035916      -0.00073496
Al       6.56495435       3.64937452       9.97426668        6       0.00314572      -0.00046920       0.00165817
Al       9.43436542       3.65740199       9.96882387        6       0.00256397      -0.00097035       0.00206393
Al      12.31026243       3.63676298      10.01702969        6       0.00342498      -0.00133431      -0.00160767
Al       5.11149808       6.13209404       9.95744455        6       0.00501445      -0.00077921       0.00208532
Al       7.96758988       6.12685820       9.94531829        6       0.00526588      -0.00047356       0.00363728
Al      10.85086170       6.11219088      10.01482685        6       0.00375821       0.00010826       0.00057558
Al      13.72074666       6.12117922       9.99788656        6       0.00329489      -0.00048799      -0.00051616
Al       6.55598087       8.61532881       9.96935031        6       0.00415366      -0.00131162       0.00197744
Al       9.42971426       8.58328562      10.02061713        6       0.00302539      -0.00013222       0.00031416
Al      12.29432322       8.60052006       9.97157248        6       0.00330197      -0.00036647       0.00105132
Al      15.15384893       8.61439886       9.97215051        6       0.00358280      -0.00022244       0.00093461
Al       1.02018265       1.97122922      12.38785509        5      -0.00082279       0.01415839      -0.00737516
Al       3.88795061       1.98097136      12.37208150        5       0.00451964       0.00178519       0.00111637
Al       6.75313789       1.97538955      12.36665255        5       0.00240593       0.01187009      -0.00987807
Al       9.61359460       1.98384059      12.36860732        5       0.00112744       0.00898089      -0.00878508
Al       2.45099427       4.46231413      12.36831194        5       0.00524393      -0.00059222      -0.00005942
Al       5.31325286       4.47167601      12.35180680        5       0.00488413      -0.00135444       0.00552902
Al       8.17279556       4.47326548      12.35586755        5       0.00635003      -0.00424498      -0.00229572
Al      11.04028527       4.46418725      12.38232719        5      -0.00514283      -0.00072902      -0.00050571
Al       3.88274719       6.94434623      12.35694118        5       0.00749433       0.00231114      -0.00073328
Al       6.74702748       6.94439813      12.35567857        5       0.00259591       0.00274029       0.00175796
Al       9.60922833       6.94098040      12.39732454        5      -0.00730521       0.00149575      -0.01961255
Al      12.47794858       6.94384620      12.37002958        5      -0.00190706       0.00260330      -0.01056453
Al       5.32151568       9.42399891      12.37299169        5       0.00062447      -0.00825344      -0.01817168
Al       8.17900776       9.42611694      12.39097185        5       0.00955975      -0.01923837      -0.01407082
Al      11.05154198       9.41798158      12.37494128        5      -0.00100603      -0.00019594      -0.02085439
Al      13.91095373       9.42404532      12.35588960        5       0.00449054      -0.00031213      -0.00129103
Al       1.12217349       0.29226596      14.65963067        4       0.00075464      -0.00337868       0.02178468
Al       4.00018782       0.29447905      14.65985548        4      -0.00490347       0.00057157       0.00412866
Al       6.85216198       0.28554744      14.65013035        4       0.00523353       0.00657569       0.00438314
Al       9.71056931       0.30670798      14.63639995        4       0.00205389      -0.00913871       0.02191691
Al       2.56540245       2.78250079      14.65815968        4      -0.00078724      -0.00262633       0.00473095
Al       5.42442675       2.77898030      14.63860591        4       0.00056749       0.00175124       0.01311452
Al       8.27736635       2.79834238      14.64992521        4       0.00523882      -0.01124982       0.00979955
Al      11.14747472       2.78431621      14.67512641        4      -0.00124199      -0.00049440       0.00268681
Al       3.99501919       5.26009325      14.65816981        4       0.00007813       0.00010628       0.00272933
Al       6.84927065       5.26456794      14.66970551        4      -0.00139612      -0.00319805      -0.01796024
Al       9.70136353       5.25686812      14.68697157        4       0.00580790      -0.00012652      -0.00409771
Al      12.57123044       5.25635807      14.63700745        4       0.00422413       0.00143191       0.02154943
Al       5.41536069       7.72765624      14.66202179        4      -0.00131332       0.00671968       0.00617874
Al       8.27201764       7.72765760      14.69177353        4       0.00228035       0.00761833      -0.00545053
Al      11.14308230       7.74210654      14.65190645        4       0.00226723      -0.00387498       0.01293086
Al      13.99598979       7.72975157      14.63845751        4       0.01499330       0.00566042       0.02053727
Al       2.68780408       1.06488900      16.95764616        3      -0.00346348      -0.00056054      -0.00310979
Al       5.55536083       1.07667891      16.95166859        3       0.00003684       0.00637621      -0.01404779
Al       8.42264734       1.08410834      16.94728652        3       0.00019678       0.00052100      -0.01947946
Al      11.27761306       1.08151979      16.96017892        3       0.00182847      -0.00898987      -0.01622637
Al       4.11676447       3.54701160      16.95975410        3       0.00033794       0.01091380      -0.00036091
Al       6.96961995       3.58617185      16.95979287        3       0.00223142      -0.01616773      -0.00284493
Al       9.82901968       3.56980744      16.99755841        3      -0.00390570       0.00165942      -0.02793568
Al      12.70285749       3.56179547      16.95195800        3       0.00651649       0.00980221      -0.01264787
Al       5.54685813       6.04398472      16.98104883        3      -0.01530444       0.00466783       0.00533530
Al       8.37963429       6.03870225      16.99344432        3       0.02172006       0.01065696       0.01013885
Al      11.27314624       6.05306790      16.96164278        3      -0.00178766       0.00208278      -0.01093131
Al      14.14255805       6.04375800      16.95634286        3       0.00169271       0.00369141      -0.00323051
Al       6.97049692       8.49795475      17.00641224        3       0.00718179       0.01605921      -0.00590676
Al       9.84574053       8.51811324      16.96672797        3      -0.00096571      -0.00338203      -0.00611178
Al      12.72233865       8.53358246      16.95973550        3       0.00084579      -0.00392689      -0.00294912
Al      15.59264897       8.52056597      16.99411474        3      -0.01322059       0.00314130      -0.03090817
Al       1.32656566       1.92281856      19.19377638        2       0.00271460      -0.00167387       0.01265400
Al       4.20661123       1.87474294      19.21468666        2      -0.00843311       0.00146016       0.02472162
Al       7.08019528       1.88915705      19.19616131        2      -0.00522548       0.00194893       0.02176785
Al       9.94739225       1.87511062      19.23138954        2      -0.00211753      -0.00104693       0.00570272
Al       2.77032134       4.41039851      19.23603894        2      -0.00004503      -0.00107804      -0.00446447
Al       5.63174240       4.40430655      19.26561999        2      -0.00837252      -0.00057526       0.01370790
Al       8.46762700       4.39389772      19.29199490        2       0.01341952      -0.00722216      -0.00924093
Al      11.35917164       4.39646741      19.19937861        2      -0.00033835      -0.00138164       0.00626745
Al       4.20227805       6.88303415      19.28255643        2      -0.00049147       0.00116576       0.00479736
Al       7.07606707       6.84089572      19.35147237        2       0.00676341       0.01054632      -0.00353661
Al       9.92574730       6.87118480      19.24952473        2      -0.00112051       0.00379385       0.01191064
Al      12.79883684       6.86610369      19.22729694        2      -0.00378720       0.00654163       0.00509135
Al       5.62557173       9.35589332      19.27348105        2      -0.00067377       0.00173797       0.00345293
Al       8.53737974       9.31640832      19.27134435        2      -0.00193080      -0.00001908       0.00960778
Al      11.36695661       9.33353590      19.22683262        2      -0.00563629       0.00189083       0.00797211
Al      14.24978474       9.35942304      19.26140529        2      -0.00099246       0.00214457       0.00182577
Al       1.47880349       0.29355753      21.43762841        1      -0.01169344       0.00028090       0.04316244
Al       4.22164414       0.31779087      22.02664530        1       0.00608549       0.00500176      -0.00744732
Al       7.08729924       0.26413114      21.51820331        1       0.00544710      -0.00106675      -0.01632780
Al      10.24375211       0.21895934      22.02387685        1      -0.00678164      -0.00039289      -0.01684795
Al       2.87626521       2.79709497      21.50516437        1      -0.01357582      -0.00781420       0.00708099
Al       5.73317796       2.73747510      21.46884044        1      -0.01511658       0.00956953       0.07609504
Al       8.65234592       2.61370777      21.50668351        1      -0.03080490       0.01290774       0.00893908
Al      11.43715652       2.81456661      21.53177049        1       0.00867802      -0.01349455      -0.03605086
Al       4.31857327       5.28592497      21.65451783        1      -0.00285374      -0.00539271       0.00665760
Al       7.29646734       5.07513581      21.76546688        1      -0.04801180       0.01978666      -0.03517230
Al      10.08731105       5.24294376      21.55096236        1      -0.02367437      -0.00943985      -0.00384267
Al      12.88190729       5.22717892      21.57416509        1       0.00755254       0.00710869      -0.00386825
Al       5.72807681       7.68503883      21.63541247        1       0.00485876       0.00184868      -0.01648133
Al       8.51200236       7.65955376      21.99873915        1      -0.00680362       0.00026276      -0.00160950
Al      11.47178686       7.67706300      21.58034355        1      -0.01118958       0.01691624      -0.00015299
Al      14.30997397       7.76347857      21.61565069        1       0.00148816       0.00539420      -0.00233736
C        0.58096237       3.56938495      25.06751431        0      -0.06241956      -0.01319803      -0.01525608
C        0.50299104       2.24142757      24.64502706        0       0.10797337      -0.06317040      -0.03790944
C       -0.77246732       1.67440023      24.51092970        0       0.02537525       0.13168855       0.03944942
N       -1.15960251       0.41351459      24.06817179        0      -0.17009920       0.01361593       0.03003432
N       -2.49398681       0.38729944      24.44759167        0      -0.17446961       0.20331386       0.02519636
N       -3.03004797       1.58575139      24.74141864        0       0.19458896      -0.36038944      -0.02070315
C       -1.94754137       2.40713631      24.85920441        0       0.02498221      -0.19012387      -0.02251726
C       -1.85790935       3.74764139      25.27985485        0       0.13537797       0.14360012      -0.01158964
C       -0.59195168       4.31461434      25.36569202        0       0.00548984      -0.11286968       0.01382230
H        1.56107981       4.04596102      25.13991971        0      -0.00662393       0.00790017      -0.00379089
H        1.39408543       1.64143489      24.42264422        0      -0.06920829       0.10134858       0.01501253
H       -3.09761160      -0.38742391      24.15539960        0       0.00972118       0.00897023      -0.00427140
H       -2.75960460       4.32526319      25.48251088        0      -0.00579452      -0.00964119       0.00711851
H       -0.48903863       5.35289864      25.68016947        0       0.01318937       0.04179316      -0.01237923
