110
Lattice="11.45512985522207 0.0 0.0 5.727564927611035 9.92043345827187 0.0 0.0 0.0 31.691342951089922" Properties=species:S:1:pos:R:3:tags:I:1:forces:R:3 energy=-461.9020080566406 free_energy=-461.9020080566406 stress="0.004797549918293953 2.941116690635681e-06 -2.3329630494117737e-07 2.941116690635681e-06 0.004841070622205734 -1.137610524892807e-06 -2.3329630494117737e-07 -1.137610524892807e-06 0.004623744636774063" pbc="T T F"
Al       2.31618232       1.23138744      10.02637398        6       0.00170495      -0.00049976      -0.00037483
Al       5.18089546       1.23555048      10.00720625        6       0.00306401      -0.00111154      -0.00069524
Al       8.03657070       1.24181331      10.01128693        6       0.00318099      -0.00083619      -0.00036497
Al      10.89062741       1.25025748       9.97879410        6       0.00328399      -0.00225491       0.00110031
Al       3.73564238       3.70980028       9.99752320        6       0.00351242      -0.00074083      -0.00028746
Al       6.59918031       3.72736640       9.98862236        6       0.00302924      -0.00109269       0.00144680
Al       9.45804334       3.73768894       9.97699500        6       0.00271357      -0.00234491       0.00151179
Al      12.32282562       3.71102784      10.01994889        6       0.00331346      -0.00119282      -0.00079680
Al       5.13726529       6.19961583       9.95572864        6       0.00439330      -0.00090767       0.00252967
Al       7.99878305       6.21431988       9.96267489        6       0.00427543      -0.00150648       0.00275667
Al      10.86842136       6.20072452       9.99295648        6       0.00373281      -0.00101231       0.00182767
Al      13.73649098       6.18462765       9.99750498        6       0.00387453      -0.00041074      -0.00002152
Al       6.57005321       8.68840260       9.97460269        6       0.00407714      -0.00123579       0.00225279
Al       9.44313099       8.68602642       9.96066422        6       0.00345060      -0.00151628       0.00298313
Al      12.31344072       8.67197938       9.99008395        6       0.00341632      -0.00068754       0.00074074
Al      15.17224834       8.67400293      10.00202907        6       0.00351078      -0.00044107       0.00040192
Al       1.00648114       1.99079607      12.38782334        5      -0.00104849       0.01547806      -0.00522850
Al       3.87428215       1.99967311      12.37533359        5       0.00567428       0.00165733      -0.00038918
Al       6.74144694       1.99776653      12.37991365        5       0.00362623       0.01002897      -0.01346301
Al       9.60558816       2.00510992      12.37564528        5       0.00106929       0.00761986      -0.01167432
Al       2.43958577       4.48111009      12.36888093        5       0.00609676      -0.00063164       0.00063820
Al       5.30262304       4.48809666      12.35903202        5       0.00453509      -0.00010471       0.00731784
Al       8.16506341       4.49436991      12.36318960        5       0.00521887      -0.00236354       0.00260425
Al      11.02975076       4.48718036      12.38354996        5      -0.00519815      -0.00118585      -0.00494562
Al       3.87360739       6.96081854      12.36338279        5       0.00828802       0.00167909       0.00023745
Al       6.73733632       6.96348139      12.36322080        5       0.00245719       0.00392070       0.00331691
Al       9.60351977       6.96691116      12.38569037        5      -0.00937974       0.00114292      -0.02116384
Al      12.46763770       6.96474044      12.37309679        5      -0.00277651       0.00091601      -0.01425284
Al       5.31123779       9.44387731      12.37874771        5      -0.00038767      -0.00779955      -0.02035959
Al       8.17194327       9.44788645      12.37638214        5       0.00976294      -0.02179398      -0.01682304
Al      11.03644982       9.43852275      12.37691894        5      -0.00013993       0.00155258      -0.02767542
Al      13.89746324       9.44179915      12.37452350        5       0.00605036       0.00244031      -0.00702831
Al       1.10889659       0.29543339      14.65296278        4       0.00119517      -0.00289725       0.02527968
Al       3.98166619       0.29532362      14.65974997        4      -0.00411921       0.00108434       0.00553413
Al       6.83532194       0.28722268      14.65978645        4       0.00539338       0.00882248       0.00596285
Al       9.69581656       0.31351106      14.64231798        4       0.00340175      -0.00986325       0.02438144
Al       2.54982303       2.78664413      14.66243429        4      -0.00041618      -0.00267168       0.00449661
Al       5.40683268       2.77883040      14.64736699        4       0.00088207       0.00314048       0.01344503
Al       8.26234220       2.80260404      14.65687757        4       0.00704944      -0.01106386       0.01117512
Al      11.13479039       2.79062609      14.68076217        4      -0.00203427      -0.00141868       0.00160011
Al       3.97804350       5.26355117      14.66366261        4       0.00084968      -0.00028731       0.00306125
Al       6.83227818       5.26703454      14.67691372        4       0.00156469      -0.00272971      -0.02250913
Al       9.68945565       5.26453738      14.68800142        4       0.00379594      -0.00030684      -0.00207119
Al      12.55727440       5.26001894      14.63711959        4       0.00449287       0.00270168       0.02494597
Al       5.40111809       7.73154960      14.66868037        4      -0.00142286       0.00845053       0.00604254
Al       8.26007086       7.73113683      14.68879606        4       0.00124581       0.00883466      -0.00856997
Al      11.12719926       7.74551302      14.65312881        4       0.00338665      -0.00397995       0.01386452
Al      13.98321702       7.73407025      14.64690264        4       0.01588001       0.00498041       0.02215040
Al       2.67043755       1.05262239      16.96113486        3      -0.00424554      -0.00008411      -0.00590054
Al       5.53582470       1.06774217      16.95782705        3       0.00156677       0.00246799      -0.01646210
Al       8.40622347       1.07212537      16.95596100        3       0.00021621       0.00050785      -0.02300040
Al      11.26138636       1.07102507      16.96540199        3       0.00306118      -0.00929306      -0.01817239
Al       4.09913549       3.53765168      16.96702579        3      -0.00009115       0.01199042      -0.00043909
Al       6.95255559       3.57568330      16.96501972        3       0.00358677      -0.01740724      -0.00243710
Al       9.81267690       3.56010136      17.00325870        3      -0.00350911       0.00130286      -0.02980350
Al      12.68656348       3.55096493      16.95718597        3       0.00711689       0.01026404      -0.01139150
Al       5.53292480       6.03364347      16.98685185        3      -0.02039286       0.00698154       0.00893614
Al       8.36366458       6.02807072      16.99934395        3       0.02280588       0.01167713       0.00846399
Al      11.25835459       6.03978857      16.96631600        3      -0.00136752       0.00329152      -0.00926621
Al      14.12807319       6.03360836      16.96336786        3       0.00120124       0.00342753      -0.00155164
Al       6.95446756       8.48762763      17.00700220        3       0.00748846       0.01579284      -0.00401014
Al       9.82763063       8.50576596      16.96774773        3       0.00088672      -0.00212001      -0.00125365
Al      12.70486670       8.52145385      16.96815436        3       0.00115339      -0.00363417      -0.00259633
Al      15.57779935       8.51045938      17.00370729        3      -0.01546946       0.00326323      -0.03278838
Al       1.31016579       1.90268835      19.19989464        2       0.00294924      -0.00034086       0.01322619
Al       4.18877254       1.85667948      19.21832322        2      -0.00908840       0.00280051       0.02510511
Al       7.06202143       1.87152016      19.19925203        2      -0.00338606       0.00311469       0.02329576
Al       9.93268578       1.85777525      19.23814670        2      -0.00245577      -0.00039959       0.00514391
Al       2.75369132       4.39545981      19.24556050        2       0.00080299      -0.00235679      -0.00445991
Al       5.61715651       4.38800465      19.26880497        2      -0.00897389      -0.00057999       0.01654357
Al       8.45444951       4.37924753      19.29783375        2       0.01145582      -0.00839262      -0.01064256
Al      11.34614341       4.38154762      19.20793415        2      -0.00079371      -0.00201757       0.00623691
Al       4.19038404       6.86749708      19.29593912        2      -0.00144421       0.00093375       0.00281124
Al       7.05955316       6.82470755      19.36228821        2       0.00714517       0.01144479      -0.00458223
Al       9.91233131       6.85541844      19.25576954        2      -0.00137337       0.00299675       0.00901398
Al      12.78644320       6.84971694      19.23789078        2      -0.00481730       0.00694834       0.00500690
Al       5.61263105       9.33850657      19.28201877        2      -0.00090286       0.00109112       0.00426963
Al       8.51849523       9.29839494      19.27323511        2      -0.00089678       0.00143430       0.00978494
Al      11.34823970       9.31670928      19.23575833        2      -0.00474027       0.00183102       0.00698745
Al      14.23603076       9.34386884      19.27459501        2      -0.00122546       0.00190991       0.00181612
Al       1.46207372       0.27054189      21.44637210        1      -0.01424750      -0.00060582       0.04601971
Al       4.21142230       0.28556112      22.01415844        1       0.00280342       0.00619197      -0.00139662
Al       7.06840719       0.24533240      21.52611302        1       0.00714081      -0.00249784      -0.01770227
Al      10.22226800       0.19977010      22.03929978        1      -0.00601686      -0.00054318      -0.01775207
Al       2.85458657       2.77058725      21.51206112        1      -0.01255931      -0.00737845       0.00743821
Al       5.71434816       2.71684158      21.47088003        1      -0.01664279       0.00942364       0.08008745
Al       8.63384587       2.59311451      21.51008707        1      -0.03198784       0.01364555       0.00955999
Al      11.41863757       2.79322204      21.53881414        1       0.00895425      -0.01415761      -0.03583476
Al       4.30091920       5.25960183      21.65950932        1      -0.00274156      -0.00544391       0.00694523
Al       7.27904104       5.04832121      21.76866297        1      -0.05480447       0.02403070      -0.03845461
Al      10.06701655       5.22342536      21.55738036        1      -0.02273558      -0.01056060      -0.00402597
Al      12.86473189       5.20303836      21.58560180        1       0.00782433       0.00700998      -0.00415120
Al       5.71250719       7.65926542      21.66180296        1       0.00314845       0.00398256      -0.01645817
Al       8.49825794       7.62933927      21.99586468        1      -0.00759101       0.00111016       0.00167494
Al      11.46309366       7.65156480      21.59088637        1      -0.01172055       0.01710621       0.00009083
Al      14.30087760       7.74550459      21.62753889        1      -0.00020895       0.00487994      -0.00276936
C        0.54987756       3.55211762      25.09693562        0      -0.05270523      -0.02307530      -0.01866734
C        0.46827965       2.22581593      24.66948179        0       0.11688831      -0.06188993      -0.03920066
C       -0.80824238       1.66413819      24.52986581        0       0.02814623       0.12997682       0.03731110
N       -1.19920700       0.40667758      24.08153519        0      -0.17447120       0.01245884       0.03477515
N       -2.53314455       0.38329799      24.46174184        0      -0.18264890       0.20924760       0.02473388
N       -3.06688613       1.58260956      24.75706620        0       0.20242389      -0.38172576      -0.02179551
C       -1.98149990       2.39929191      24.87852409        0       0.02145434      -0.18490392      -0.02023622
C       -1.88867370       3.73698267      25.30557540        0       0.16077860       0.15315023      -0.00929170
C       -0.62079822       4.29990099      25.39521717        0      -0.01102078      -0.11103807       0.01815545
H        1.53150303       4.02451260      25.17486821        0      -0.00639044       0.00828698      -0.00327074
H        1.35754843       1.62266166      24.44834304        0      -0.06831864       0.10419347       0.01339323
H       -3.13746320      -0.39067906      24.17009940        0       0.00608327       0.00561201      -0.00685380
H       -2.78834285       4.31491012      25.51376812        0      -0.01531429      -0.00299135       0.00766314
H       -0.51443488       5.33619907      25.71523948        0       0.01069415       0.04009718      -0.01278109
