110
Lattice="11.45512985522207 0.0 0.0 5.727564927611035 9.92043345827187 0.0 0.0 0.0 31.691342951089922" Properties=species:S:1:pos:R:3:tags:I:1:forces:R:3 energy=-461.8233337402344 free_energy=-461.8233337402344 stress="0.004735820926725864 3.107357770204544e-06 -1.6996636986732483e-07 3.107357770204544e-06 0.004770034924149513 -1.3592652976512909e-06 -1.6996636986732483e-07 -1.3592652976512909e-06 0.004521009046584368" pbc="T T F"
Al       2.33052830       1.12937833      10.03645667        6       0.00013237       0.00156394       0.00136605
Al       5.17271731       1.13842531      10.00737577        6       0.00240952       0.00081529       0.00143569
Al       8.02902703       1.16575937       9.98702604        6       0.00300133      -0.00017641       0.00159824
Al      10.90098252       1.16344508      10.00152899        6       0.00263289      -0.00046548       0.00133029
Al       3.73624515       3.62571958       9.99722198        6       0.00184839       0.00039415       0.00251879
Al       6.58803589       3.64001903       9.97777195        6       0.00256570      -0.00073789       0.00300213
Al       9.46438951       3.64455374       9.99292325        6       0.00153171      -0.00099226       0.00245190
Al      12.33609083       3.63352634      10.01390516        6       0.00288123      -0.00238370      -0.00051672
Al       5.12916542       6.11717405       9.98878276        6       0.00464211      -0.00018718       0.00187975
Al       7.98246254       6.10946821       9.97503888        6       0.00798848      -0.00007047       0.00277284
Al      10.86582891       6.10125120      10.04668907        6       0.00694085      -0.00092488      -0.00482192
Al      13.74550828       6.11627193      10.01912248        6       0.00251730      -0.00216510      -0.00184906
Al       6.57072720       8.60330253       9.97558508        6       0.00519371      -0.00213831       0.00246391
Al       9.44924939       8.57194367      10.03764164        6       0.00214397       0.00000704       0.00160678
Al      12.31610897       8.58874794       9.98565089        6       0.00189299       0.00039378       0.00261914
Al      15.16968085       8.60521291       9.97958718        6       0.00375945       0.00005448       0.00161093
Al       1.03655682       1.96313274      12.39583683        5      -0.00196000       0.01277318      -0.01323988
Al       3.89923389       1.97090241      12.37804865        5       0.00892850       0.00115179      -0.00400389
Al       6.76578588       1.96710075      12.36999043        5       0.00259838       0.01133471      -0.00634807
Al       9.62980582       1.97100165      12.37639136        5      -0.00110275       0.00985729      -0.00058421
Al       2.46710791       4.45015595      12.38103620        5       0.00671830      -0.00038551      -0.00780954
Al       5.32484374       4.46176379      12.36760751        5       0.00885274      -0.00653339       0.00079006
Al       8.18307777       4.46051709      12.36895428        5       0.00803331      -0.00370963       0.00080422
Al      11.05815975       4.45616075      12.39415286        5      -0.00622857      -0.00587514      -0.00346264
Al       3.89715003       6.93429879      12.38155819        5       0.00542081       0.00308011      -0.00869587
Al       6.75660032       6.93622011      12.37484445        5       0.00345179       0.00263807       0.00280793
Al       9.61777854       6.93088234      12.41487465        5      -0.00970044       0.00629803      -0.01804265
Al      12.48807962       6.93818482      12.38127238        5      -0.00028575      -0.00024394      -0.00657899
Al       5.33553061       9.41238295      12.38682600        5      -0.00061212      -0.00656406      -0.02310554
Al       8.19090582       9.41695355      12.40701033        5       0.01502224      -0.02539267      -0.02988382
Al      11.06836418       9.41260271      12.38695551        5      -0.00849212      -0.00282324      -0.02760931
Al      13.92659639       9.41894091      12.36289282        5       0.00407405      -0.00371619      -0.00044811
Al       1.13339792       0.28126800      14.66929556        4      -0.00316694      -0.00232516       0.02919233
Al       4.00945636       0.28842268      14.66911291        4      -0.00615948      -0.00023395       0.00574503
Al       6.86120262       0.27530499      14.65586464        4       0.00617174       0.00963568       0.00760415
Al       9.71654977       0.29081487      14.65045277        4       0.00396672      -0.00657956       0.02041357
Al       2.58017405       2.77058827      14.66785993        4      -0.00250809      -0.00197091       0.00485855
Al       5.43460175       2.76715001      14.64851364        4       0.00185483       0.00194278       0.01304989
Al       8.28948445       2.78560910      14.66034657        4       0.00322395      -0.01041586       0.00968369
Al      11.16120504       2.77272223      14.68122361        4      -0.00398167      -0.00224183       0.00353853
Al       4.00810677       5.24896354      14.67821248        4      -0.00262641      -0.00063284       0.00111439
Al       6.85642125       5.25162295      14.68489610        4      -0.00081238       0.00000894      -0.01412875
Al       9.71265205       5.24661383      14.69389070        4       0.00314041      -0.00023138       0.00014558
Al      12.58675287       5.24870234      14.64967012        4       0.00147201       0.00081704       0.02050665
Al       5.42152291       7.71730099      14.68190916        4      -0.00136741       0.00777488       0.00626087
Al       8.27914828       7.72212298      14.70963234        4       0.00099189       0.00578481      -0.01102921
Al      11.14909354       7.73463721      14.66611657        4       0.00284620      -0.00475384       0.00745904
Al      13.99755430       7.71803163      14.64711571        4       0.01914599       0.00760514       0.02462106
Al       2.68821246       1.05858414      16.96864190        3      -0.00194725      -0.00428657      -0.00873429
Al       5.56044923       1.06749206      16.96260285        3      -0.00278669       0.00724881      -0.01683330
Al       8.42160644       1.07374284      16.95691038        3       0.00049797       0.00089358      -0.02165489
Al      11.28092747       1.06434124      16.97065933        3       0.00089820      -0.00683118      -0.02148147
Al       4.12312285       3.53798959      16.97274443        3      -0.00021860       0.01176482      -0.00113564
Al       6.97415312       3.57931756      16.97439346        3       0.00001509      -0.01793175      -0.00521760
Al       9.83594591       3.55575141      17.00170752        3      -0.00660260       0.00489637      -0.03332524
Al      12.71018020       3.55577913      16.95434023        3       0.00499125       0.00805605      -0.00705108
Al       5.54169187       6.03764918      17.00353388        3      -0.00313530       0.00080146       0.00340808
Al       8.38219108       6.02666692      17.00035648        3       0.01748311       0.01285590       0.00969344
Al      11.27181428       6.04663299      16.96634423        3      -0.00002597      -0.00171323      -0.00775371
Al      14.14385829       6.03681631      16.97252380        3       0.00091292       0.00155273      -0.00388263
Al       6.96322194       8.48131859      17.02384612        3       0.01311546       0.02762477      -0.01496736
Al       9.84777002       8.50796699      16.97300375        3      -0.00439903       0.00251103      -0.00157225
Al      12.72379068       8.51756105      16.96505202        3      -0.00006887       0.00105926       0.00295512
Al      15.58349130       8.50869546      17.00892723        3      -0.01041988       0.00420242      -0.03671985
Al       1.32221353       1.91376590      19.19773245        2       0.00183963       0.00309040       0.01369087
Al       4.20364536       1.87409142      19.22523100        2      -0.00732416      -0.00140590       0.02306008
Al       7.07733001       1.88076354      19.20578742        2      -0.00753132       0.00226132       0.02421355
Al       9.94372454       1.87060195      19.22915956        2      -0.00164574      -0.00223132       0.01304612
Al       2.77625301       4.40210200      19.24978668        2      -0.00562047      -0.00047084      -0.00508928
Al       5.63120057       4.39943754      19.28439780        2      -0.00713824      -0.00238959       0.00829762
Al       8.46633827       4.38522605      19.29273888        2       0.01321998      -0.00546124      -0.00385806
Al      11.35592679       4.38453612      19.20096606        2       0.00085054       0.00131356       0.01152682
Al       4.18905788       6.87755689      19.30397630        2       0.00127476       0.00142129       0.00249972
Al       7.07113432       6.83312819      19.36360514        2       0.00767654       0.01257824       0.00064629
Al       9.91452065       6.86402633      19.24344132        2       0.00047338       0.00474825       0.02468752
Al      12.78984960       6.85865414      19.23550500        2      -0.00377194       0.00671070       0.00647887
Al       5.61079835       9.33917427      19.28619214        2       0.00056073       0.00477306       0.00392348
Al       8.52598378       9.31548879      19.27069458        2       0.00186534      -0.00349073       0.01771922
Al      11.36412762       9.33042117      19.23081917        2      -0.00858409       0.00042389       0.01038588
Al      14.24064785       9.35364406      19.26827347        2      -0.00243330       0.00127484       0.00837008
Al       1.46054607       0.29984628      21.43207500        1      -0.00953152      -0.00370929       0.06022085
Al       4.18844665       0.31447948      22.02229217        1       0.01819872       0.00409842      -0.02061169
Al       7.07226322       0.26066569      21.53173088        1       0.00463280      -0.00127238      -0.01742666
Al      10.22730183       0.21384806      22.03167736        1      -0.00952124       0.00010300      -0.01734432
Al       2.88436824       2.80492560      21.52041697        1      -0.02218883      -0.01029445       0.00560417
Al       5.73145604       2.73875836      21.48877212        1      -0.01161330       0.00529519       0.07025339
Al       8.65322950       2.61830078      21.50302472        1      -0.03315122       0.00831798       0.01046117
Al      11.43634969       2.81942703      21.54017765        1       0.01249961      -0.01867716      -0.04277105
Al       4.31821168       5.29398581      21.66448138        1      -0.00406365      -0.00949079       0.00612681
Al       7.28731726       5.09043852      21.77165948        1      -0.04201802       0.01384101      -0.03504254
Al      10.06631060       5.23128272      21.54307316        1      -0.01855554      -0.00794969      -0.00150542
Al      12.87283946       5.23983966      21.57718812        1       0.00597125       0.00704448      -0.00585355
Al       5.72161134       7.69243225      21.64581160        1       0.00438256      -0.00143955      -0.01856581
Al       8.50484547       7.67159967      22.01001070        1      -0.00758770      -0.00417187      -0.01571865
Al      11.42075731       7.68208201      21.57166259        1      -0.00854821       0.02042683      -0.00172450
Al      14.27845835       7.75548917      21.63210073        1       0.00204541       0.00751011      -0.00144972
C        0.53987880       3.64575997      24.95943980        0      -0.08357992      -0.01237231      -0.01614602
C        0.47738916       2.30004805      24.59128863        0       0.15985768      -0.05696255      -0.03825213
C       -0.78941653       1.71371095      24.47995688        0       0.00985360       0.15842952       0.04568140
N       -1.15786960       0.43661152      24.07311677        0      -0.18163925       0.00556193       0.03090841
N       -2.48903197       0.40015916      24.46566432        0      -0.17864075       0.24867266       0.03652652
N       -3.04025271       1.60184181      24.72831531        0       0.15979700      -0.38328809      -0.02198396
C       -1.97249071       2.44312036      24.81015203        0       0.04507457      -0.20495851      -0.02096190
C       -1.90004353       3.80541377      25.16234314        0       0.08798177       0.11862136      -0.01381997
C       -0.64167757       4.39113668      25.21871609        0       0.03369701      -0.12889670       0.02861252
H        1.51374123       4.13461905      25.01211044        0       0.02305879       0.02400682      -0.00119707
H        1.37426034       1.69774346      24.39923770        0      -0.07079244       0.11884518       0.01454567
H       -3.08434077      -0.37992602      24.17514637        0      -0.00944630      -0.01409612      -0.00830844
H       -2.80861669       4.38456704      25.32962985        0       0.00323946      -0.02101279       0.00458158
H       -0.55329792       5.44472682      25.47885405        0       0.01957860       0.07290088      -0.01326064
