110
Lattice="11.45512985522207 0.0 0.0 5.727564927611035 9.92043345827187 0.0 0.0 0.0 31.691342951089922" Properties=species:S:1:pos:R:3:tags:I:1:forces:R:3 energy=-461.86663818359375 free_energy=-461.86663818359375 stress="0.004889720119535923 3.0370429158210754e-06 -1.4901161193847656e-07 3.0370429158210754e-06 0.004923833068460226 -1.1832453310489655e-06 -1.4901161193847656e-07 -1.1832453310489655e-06 0.004701564554125071" pbc="T T F"
Al       2.33118073       1.18063654      10.01769749        6       0.00045044      -0.00012104      -0.00024783
Al       5.17805552       1.17940996      10.01391473        6       0.00253911      -0.00004453      -0.00113763
Al       8.03424270       1.20679465       9.99064359        6       0.00263735      -0.00048884       0.00060066
Al      10.90378944       1.21380566       9.98928303        6       0.00225590      -0.00251282       0.00000421
Al       3.72260775       3.66291508      10.02162091        6       0.00405979      -0.00020067      -0.00309846
Al       6.56864924       3.68124728       9.97844145        6       0.00480140      -0.00131143       0.00033647
Al       9.43551775       3.69263488       9.95243772        6       0.00351758      -0.00189661       0.00243153
Al      12.31689015       3.66625785      10.01267622        6       0.00351386      -0.00093617      -0.00088316
Al       5.11292891       6.16567692       9.94911435        6       0.00643298      -0.00189314       0.00106912
Al       7.96975344       6.16409223       9.91541839        6       0.00541773      -0.00100277       0.00493198
Al      10.85302741       6.14173341      10.00080490        6       0.00438709       0.00001699       0.00110096
Al      13.72057343       6.14933252       9.99467776        6       0.00461705      -0.00041141      -0.00066328
Al       6.56804666       8.64908125       9.96070356        6       0.00369355      -0.00057847       0.00268804
Al       9.44041909       8.61265034      10.02210826        6       0.00309831       0.00018923       0.00063651
Al      12.30610068       8.63209123       9.96887649        6       0.00426095      -0.00149556       0.00027831
Al      15.16918671       8.65002194       9.98014686        6       0.00314240      -0.00093994       0.00066296
Al       1.01847365       1.98171817      12.38208133        5      -0.00126290       0.01456283      -0.00869281
Al       3.88457606       1.98980679      12.37440692        5       0.00427548       0.00176950       0.00174760
Al       6.75146772       1.98459804      12.36954755        5       0.00350342       0.01263220      -0.01195785
Al       9.61232514       1.99612572      12.36426142        5       0.00091845       0.00861029      -0.01059481
Al       2.44321125       4.47487196      12.37141885        5       0.00619236      -0.00129012      -0.00003061
Al       5.30891133       4.48309698      12.35440489        5       0.00521777      -0.00100493       0.00586875
Al       8.16975544       4.48459820      12.34673627        5       0.00679945      -0.00444342      -0.00189365
Al      11.03563574       4.47602062      12.37641452        5      -0.00578755      -0.00104387      -0.00117307
Al       3.88051396       6.95410546      12.35565488        5       0.00665408       0.00298616       0.00054318
Al       6.74600116       6.95288678      12.34469088        5       0.00280549       0.00361863       0.00255186
Al       9.60600052       6.95052820      12.39060280        5      -0.00757378       0.00105266      -0.01951319
Al      12.47506150       6.95355878      12.36892824        5      -0.00277903       0.00308749      -0.00988569
Al       5.31963048       9.43374367      12.36996701        5       0.00048007      -0.00784088      -0.01902755
Al       8.17490746       9.43705144      12.38598421        5       0.01012637      -0.02046659      -0.01423687
Al      11.04834445       9.42665120      12.37642784        5       0.00006769      -0.00062117      -0.02287772
Al      13.90696246       9.43268203      12.35933596        5       0.00562798       0.00044383      -0.00301680
Al       1.11462796       0.29649068      14.65440775        4       0.00181561      -0.00344374       0.02329094
Al       3.99218881       0.29589961      14.65758082        4      -0.00488853       0.00091490       0.00561507
Al       6.84563946       0.28884692      14.65211096        4       0.00565410       0.00747777       0.00448763
Al       9.70603832       0.31350941      14.63283407        4       0.00196531      -0.01045085       0.02322319
Al       2.55864691       2.78679584      14.65911601        4      -0.00053429      -0.00305328       0.00450468
Al       5.41783250       2.78187475      14.63831087        4       0.00071286       0.00253395       0.01476304
Al       8.27325819       2.80279908      14.64623116        4       0.00489341      -0.01088760       0.01054221
Al      11.14368588       2.78877863      14.67234274        4      -0.00184960      -0.00076751       0.00249693
Al       3.98606113       5.26594544      14.65722488        4       0.00099980       0.00003436       0.00367587
Al       6.84456666       5.26751098      14.66527653        4      -0.00226592      -0.00233976      -0.01921473
Al       9.69512000       5.25992557      14.68438150        4       0.00661465       0.00003387      -0.00517109
Al      12.56419157       5.26060837      14.63873936        4       0.00387130       0.00190168       0.02202545
Al       5.41313117       7.73102941      14.65814616        4      -0.00258353       0.00785835       0.00631804
Al       8.26647983       7.72951027      14.68720858        4       0.00198517       0.00908784      -0.00612061
Al      11.13643243       7.74494113      14.65157932        4       0.00258048      -0.00434947       0.01319412
Al      13.99165497       7.73566537      14.63878505        4       0.01547901       0.00517493       0.02204747
Al       2.67757750       1.06152574      16.95657731        3      -0.00335682      -0.00020201      -0.00352705
Al       5.54442432       1.07475158      16.95130956        3       0.00078355       0.00580885      -0.01374922
Al       8.41403346       1.08024352      16.94623776        3      -0.00017144       0.00109459      -0.02017800
Al      11.26841388       1.07873480      16.96003497        3       0.00235525      -0.01003281      -0.01805606
Al       4.10722138       3.54505575      16.96037843        3       0.00044377       0.01104896      -0.00020319
Al       6.96174554       3.58481001      16.95627060        3       0.00238454      -0.01839797      -0.00253775
Al       9.82011165       3.56547681      16.99692300        3      -0.00365498       0.00171531      -0.02987725
Al      12.69295389       3.55653144      16.95355496        3       0.00749332       0.01105816      -0.01397762
Al       5.54068268       6.04128252      16.97820518        3      -0.01830001       0.00536472       0.00604666
Al       8.37143999       6.03554751      16.99284661        3       0.02345882       0.01161136       0.01066119
Al      11.26340074       6.04833391      16.96419685        3      -0.00151417       0.00301143      -0.01248364
Al      14.13264703       6.04220338      16.95810687        3       0.00271243       0.00368504      -0.00498643
Al       6.96288330       8.49498146      17.00539833        3       0.00725706       0.01661174      -0.00668463
Al       9.83558214       8.51519596      16.96766910        3      -0.00028648      -0.00445825      -0.00913122
Al      12.71124673       8.53033938      16.96138711        3       0.00194116      -0.00375248      -0.00271102
Al      15.58677115       8.51845435      16.99500826        3      -0.01529104       0.00248469      -0.03465409
Al       1.31458230       1.91368523      19.19695992        2       0.00395750      -0.00118865       0.01456911
Al       4.19398766       1.86765900      19.21576338        2      -0.00851223       0.00279399       0.02662937
Al       7.06839289       1.88584408      19.19380226        2      -0.00407097       0.00131013       0.02291745
Al       9.93749884       1.86765024      19.23301248        2      -0.00248612      -0.00046619       0.00669838
Al       2.75702233       4.40461904      19.23676280        2       0.00132591      -0.00177237      -0.00351457
Al       5.62101429       4.39695258      19.26219862        2      -0.00736886      -0.00025963       0.01453643
Al       8.45794908       4.38782923      19.29215841        2       0.01462523      -0.00740696      -0.01003065
Al      11.34947567       4.38962003      19.19948613        2      -0.00048353      -0.00148531       0.00947070
Al       4.19352083       6.87550493      19.28371593        2      -0.00081445       0.00279921       0.00463602
Al       7.06506992       6.83419730      19.35285372        2       0.00785088       0.01146215      -0.00380279
Al       9.91815841       6.86951031      19.25117523        2      -0.00221554       0.00264504       0.01304586
Al      12.78957407       6.86141604      19.23017061        2      -0.00403270       0.00662652       0.00614660
Al       5.61821558       9.34878199      19.27641534        2      -0.00085838       0.00154020       0.00457142
Al       8.52574049       9.31261014      19.27073541        2      -0.00253285      -0.00086295       0.01146031
Al      11.35358104       9.33051804      19.22965431        2      -0.00464336       0.00153663       0.00975705
Al      14.24071516       9.35463595      19.26148682        2      -0.00110541       0.00164466       0.00330107
Al       1.47062132       0.28184920      21.44329873        1      -0.01285805       0.00095160       0.04592399
Al       4.21594372       0.30783853      22.03825964        1       0.00639266       0.00501514      -0.01077094
Al       7.07812668       0.25864276      21.51556141        1       0.00524795      -0.00178015      -0.01676632
Al      10.23526859       0.21383024      22.03599097        1      -0.00848078      -0.00040693      -0.01898844
Al       2.85815670       2.78527863      21.50531620        1      -0.01353837      -0.00753989       0.00867396
Al       5.71598101       2.72920391      21.46862476        1      -0.01496048       0.01000330       0.08122496
Al       8.63791425       2.60394324      21.50629513        1      -0.03273990       0.01660269       0.01082863
Al      11.42242528       2.80744906      21.53671365        1       0.01129101      -0.01504929      -0.03887410
Al       4.31061627       5.27752821      21.64660006        1      -0.00294720      -0.00713918       0.00742260
Al       7.28327893       5.06182077      21.76117052        1      -0.05312686       0.02326811      -0.03764639
Al      10.07862066       5.23724462      21.54825803        1      -0.02666234      -0.00934654      -0.00408679
Al      12.87419307       5.21899065      21.57761535        1       0.00841865       0.00718810      -0.00397978
Al       5.71906636       7.67564726      21.64249781        1       0.00508399       0.00325779      -0.01821442
Al       8.50201939       7.64122760      22.00015819        1      -0.00552129       0.00224187      -0.00191817
Al      11.47191211       7.66856986      21.58405168        1      -0.01349374       0.01735056       0.00112988
Al      14.30926917       7.76683827      21.61913478        1       0.00029736       0.00291417      -0.00332941
C        0.57192707       3.54442964      25.11678721        0      -0.06558712      -0.01675145      -0.01726841
C        0.48440073       2.22332686      24.67500969        0       0.10888577      -0.06398401      -0.03775172
C       -0.79530369       1.66780969      24.53286722        0       0.02246794       0.14495668       0.04360031
N       -1.19145045       0.41465550      24.07769715        0      -0.18668337       0.01489501       0.03380667
N       -2.52731311       0.39543355      24.45251389        0      -0.18571629       0.22176729       0.02642273
N       -3.05544324       1.59529591      24.75537745        0       0.21638115      -0.38535959      -0.02337221
C       -1.96596272       2.40582098      24.88634788        0       0.02933127      -0.20450321      -0.02568243
C       -1.86658029       3.73844680      25.32843966        0       0.15168716       0.15254693      -0.01351434
C       -0.59611757       4.29403948      25.42448227        0       0.00115259      -0.11943352       0.01438616
H        1.55567941       4.01199831      25.20096303        0      -0.01412462       0.00465683      -0.00478693
H        1.37111342       1.61934197      24.44449965        0      -0.07522624       0.10850217       0.01794936
H       -3.13538810      -0.37310826      24.15247144        0       0.01330795       0.01339211      -0.00347549
H       -2.76398758       4.31863358      25.54257166        0      -0.00511160      -0.01006698       0.00656606
H       -0.48529323       5.32587134      25.75747167        0       0.01340234       0.03813771      -0.01404850
