110
Lattice="11.45512985522207 0.0 0.0 5.727564927611035 9.92043345827187 0.0 0.0 0.0 31.691342951089922" Properties=species:S:1:pos:R:3:tags:I:1:forces:R:3 energy=-461.92529296875 free_energy=-461.92529296875 stress="0.004909016191959381 2.9671937227249146e-06 -1.862645149230957e-07 2.9671937227249146e-06 0.004947882145643234 -1.0579824447631836e-06 -1.862645149230957e-07 -1.0579824447631836e-06 0.004741031676530838" pbc="T T F"
Al       2.33884010       1.22747940      10.01842766        6       0.00046022      -0.00041722      -0.00015569
Al       5.19924235       1.22948920      10.01591317        6       0.00241590      -0.00081521      -0.00142006
Al       8.05189344       1.24177190      10.01246381        6       0.00291201      -0.00089269      -0.00101061
Al      10.90833566       1.24971713       9.96865646        6       0.00275389      -0.00176115       0.00197641
Al       3.74152226       3.70474548      10.00971700        6       0.00381423      -0.00047520      -0.00173216
Al       6.60112076       3.72650685       9.98278023        6       0.00362358      -0.00179603       0.00082529
Al       9.46153254       3.73646923       9.95681508        6       0.00274446      -0.00235355       0.00257647
Al      12.33100722       3.70911584      10.01041552        6       0.00332613      -0.00161242      -0.00048642
Al       5.13054070       6.19833533       9.94348475        6       0.00517035      -0.00086325       0.00281171
Al       7.99044158       6.21023915       9.93440270        6       0.00504711      -0.00104670       0.00440358
Al      10.86334908       6.19296301       9.98848366        6       0.00460466      -0.00068288       0.00169066
Al      13.73229307       6.18435569       9.99418897        6       0.00579376      -0.00130104      -0.00147950
Al       6.58060129       8.68509319       9.96977185        6       0.00367736      -0.00071624       0.00261368
Al       9.45593965       8.67793515       9.97380375        6       0.00291402      -0.00129440       0.00260252
Al      12.32337782       8.66777352       9.98834239        6       0.00329725      -0.00038853       0.00068844
Al      15.18086294       8.67609559       9.99932791        6       0.00414682      -0.00116599      -0.00073122
Al       1.01527206       1.99105422      12.38199423        5      -0.00028389       0.01512949      -0.00939910
Al       3.88239566       1.99872463      12.37553222        5       0.00447133       0.00260010       0.00163553
Al       6.75098105       1.99706057      12.37815897        5       0.00261582       0.01227088      -0.01048562
Al       9.61535004       2.00448432      12.36727316        5       0.00101454       0.00933320      -0.01046045
Al       2.44376623       4.48256808      12.36959719        5       0.00608114      -0.00091773       0.00063604
Al       5.30901599       4.49064898      12.35673029        5       0.00500243      -0.00062430       0.00689214
Al       8.17178850       4.49546736      12.35403316        5       0.00682596      -0.00404170      -0.00204615
Al      11.03503085       4.48752676      12.37444136        5      -0.00484756      -0.00150044      -0.00097143
Al       3.87924534       6.95890579      12.35915720        5       0.00815718       0.00304553       0.00050612
Al       6.74308418       6.96261181      12.35184590        5       0.00325697       0.00380872       0.00257593
Al       9.60552265       6.96466080      12.38403622        5      -0.00732341       0.00219145      -0.02219063
Al      12.47120526       6.96236043      12.37016396        5      -0.00273507       0.00289337      -0.01089511
Al       5.31886198       9.44410493      12.37412688        5       0.00081186      -0.00852495      -0.02044179
Al       8.17762322       9.44794956      12.37520108        5       0.00972780      -0.02191192      -0.01511445
Al      11.04464591       9.43891889      12.37793489        5      -0.00064182      -0.00149660      -0.02297767
Al      13.90544408       9.44149434      12.37015801        5       0.00493614       0.00104424      -0.00087564
Al       1.11568740       0.29799074      14.65103724        4       0.00090163      -0.00319809       0.02371494
Al       3.98872332       0.29665856      14.66060719        4      -0.00423663       0.00081648       0.00477539
Al       6.84302573       0.28873882      14.65907370        4       0.00483384       0.00697159       0.00435363
Al       9.70331323       0.31434034      14.63759556        4       0.00267634      -0.00913737       0.02248765
Al       2.55597879       2.78724991      14.65914670        4      -0.00052123      -0.00236227       0.00548058
Al       5.41531733       2.78095116      14.64486505        4       0.00075391       0.00253779       0.01369919
Al       8.27213443       2.80460403      14.65066816        4       0.00553618      -0.01037867       0.01098123
Al      11.14185909       2.79175094      14.67342590        4      -0.00196670      -0.00099979       0.00278935
Al       3.98674429       5.26202337      14.66553473        4       0.00041394       0.00043067       0.00279663
Al       6.84165541       5.26933199      14.67010229        4      -0.00162416      -0.00293079      -0.01768686
Al       9.69363972       5.26530693      14.68382630        4       0.00628182      -0.00079967      -0.00529850
Al      12.56178137       5.26078336      14.63716909        4       0.00399773       0.00219342       0.02240833
Al       5.40838958       7.73350126      14.66164104        4      -0.00192079       0.00683658       0.00673494
Al       8.26266461       7.73326472      14.68587912        4       0.00271223       0.00794697      -0.00584306
Al      11.13136562       7.74629400      14.65264101        4       0.00312077      -0.00420388       0.01299011
Al      13.98670177       7.73192461      14.64155172        4       0.01648661       0.00611301       0.02273820
Al       2.67509038       1.05512312      16.95928219        3      -0.00399914      -0.00050953      -0.00346236
Al       5.54145158       1.06665863      16.95691300        3       0.00003179       0.00570126      -0.01381354
Al       8.40966541       1.07245985      16.95088680        3       0.00143959       0.00140881      -0.02099956
Al      11.26610223       1.07064295      16.96088162        3       0.00252620      -0.00849350      -0.01700196
Al       4.10372380       3.53904654      16.96442501        3       0.00033054       0.01107590       0.00037306
Al       6.95793229       3.57586329      16.96178582        3       0.00249061      -0.01488719      -0.00248396
Al       9.81740504       3.55954193      16.99976900        3      -0.00395390       0.00190686      -0.02928471
Al      12.68959198       3.55108403      16.95542999        3       0.00775819       0.01020766      -0.01290036
Al       5.53742617       6.03605299      16.98503494        3      -0.01814165       0.00439426       0.00523085
Al       8.36664362       6.02784741      16.99436162        3       0.02508710       0.01318872       0.01117946
Al      11.26029574       6.04043533      16.96461154        3      -0.00186817       0.00279690      -0.01031286
Al      14.12873111       6.03423422      16.96239782        3       0.00284139       0.00353501      -0.00433783
Al       6.95809861       8.48840511      17.00792116        3       0.00882255       0.01728125      -0.00725854
Al       9.83092605       8.50786408      16.96976913        3       0.00016807      -0.00439780      -0.00687148
Al      12.70857402       8.52081540      16.96566206        3       0.00107484      -0.00428299      -0.00440468
Al      15.58079116       8.51040421      16.99738266        3      -0.01411188       0.00289334      -0.03277258
Al       1.31279062       1.90425537      19.19847391        2       0.00320778      -0.00068821       0.01367186
Al       4.19350442       1.86304841      19.21750506        2      -0.00857064       0.00083910       0.02592019
Al       7.06796759       1.87551677      19.19752158        2      -0.00440749       0.00213056       0.02177911
Al       9.93450389       1.85852503      19.23476406        2      -0.00155526      -0.00062043       0.00520256
Al       2.75518580       4.39560226      19.24344815        2       0.00116934      -0.00138082      -0.00349536
Al       5.61940016       4.39133243      19.26919262        2      -0.00896237      -0.00061771       0.01614447
Al       8.45479872       4.38025559      19.29672399        2       0.01344365      -0.00747460      -0.00985470
Al      11.34675125       4.37861952      19.20658759        2      -0.00012234      -0.00099785       0.00642764
Al       4.19149364       6.86703288      19.29070137        2      -0.00114892       0.00131855       0.00592519
Al       7.06483757       6.82538590      19.35995897        2       0.00766976       0.01186558      -0.00524534
Al       9.91461682       6.85622197      19.25310706        2      -0.00125244       0.00391790       0.01144188
Al      12.78625906       6.84870415      19.23557657        2      -0.00421249       0.00719504       0.00559672
Al       5.61388893       9.34015752      19.27921039        2      -0.00064025       0.00179916       0.00344423
Al       8.52349247       9.30283746      19.27545439        2      -0.00182040       0.00097001       0.00911357
Al      11.35491424       9.31971537      19.23305827        2      -0.00591181       0.00174315       0.00689710
Al      14.23724234       9.34271696      19.26626849        2      -0.00089056       0.00246062       0.00250869
Al       1.46416183       0.27761817      21.44854110        1      -0.01467600       0.00048896       0.04483313
Al       4.21580804       0.30289346      22.00974702        1       0.00440295       0.00438022      -0.00611491
Al       7.07816932       0.24986997      21.52101680        1       0.00557341      -0.00196152      -0.01835944
Al      10.22203944       0.20743734      22.03836942        1      -0.00759642      -0.00103053      -0.01762858
Al       2.86270032       2.78020884      21.51135510        1      -0.01411866      -0.00732833       0.00771444
Al       5.72227599       2.72451488      21.47207083        1      -0.01602615       0.01085760       0.08161208
Al       8.64115003       2.59778358      21.50742853        1      -0.03268760       0.01498132       0.01002677
Al      11.42619291       2.79491622      21.54092641        1       0.00940508      -0.01479671      -0.03832348
Al       4.31452486       5.27313705      21.66976495        1      -0.00419907      -0.00569511       0.00794459
Al       7.29259648       5.05701948      21.78030192        1      -0.05465497       0.02296332      -0.04026560
Al      10.07819087       5.22676795      21.55371281        1      -0.02488787      -0.01028566      -0.00443982
Al      12.87355530       5.20913871      21.58594264        1       0.00754022       0.00804144      -0.00526068
Al       5.71917534       7.67267271      21.64359340        1       0.00418465       0.00359109      -0.01581446
Al       8.50782850       7.64262746      21.99969793        1      -0.00780477      -0.00009506      -0.00037977
Al      11.46023617       7.65987465      21.58779895        1      -0.01191231       0.01798880       0.00054385
Al      14.30128124       7.74865396      21.62195835        1       0.00043533       0.00455581      -0.00312328
C        0.50733224       3.55371737      25.12024135        0      -0.06807660      -0.01533034      -0.01710280
C        0.43762871       2.23098962      24.68026125        0       0.11268175      -0.06698631      -0.04012360
C       -0.83449546       1.65852202      24.53756194        0       0.03039525       0.14361948       0.04393715
N       -1.21358650       0.39939756      24.08418729        0      -0.18309391       0.01573393       0.03462354
N       -2.54763018       0.36182080      24.46258704        0      -0.18923891       0.21852458       0.02634282
N       -3.09136037       1.55327599      24.76887988        0       0.21245144      -0.38743088      -0.02387436
C       -2.01404519       2.38051329      24.89306613        0       0.02587779      -0.20331284      -0.02305061
C       -1.93329371       3.71505578      25.33323457        0       0.15042087       0.15446697      -0.01254588
C       -0.67056888       4.28809172      25.42712284        0       0.00379784      -0.12343185       0.01575774
H        1.48459887       4.03437464      25.20381189        0      -0.00990965       0.00685249      -0.00352472
H        1.33233200       1.63750117      24.45362972        0      -0.07592498       0.10860957       0.01622210
H       -3.14532448      -0.41657801      24.16795255        0       0.01182582       0.01090612      -0.00568746
H       -2.83823790       4.28308535      25.54825703        0      -0.00555101      -0.01072982       0.00701991
H       -0.57349652       5.32138623      25.75943199        0       0.01365327       0.04201541      -0.01399137
