110
Lattice="11.45512985522207 0.0 0.0 5.727564927611035 9.92043345827187 0.0 0.0 0.0 31.691342951089922" Properties=species:S:1:pos:R:3:tags:I:1:forces:R:3 energy=-461.7972412109375 free_energy=-461.7972412109375 stress="0.004748175852000713 2.9760412871837616e-06 -2.7567148208618164e-07 2.9760412871837616e-06 0.004796124994754791 -1.3997778296470642e-06 -2.7567148208618164e-07 -1.3997778296470642e-06 0.004542666953057051" pbc="T T F"
Al       2.29658140       1.22108451      10.03774506        6       0.00236654      -0.00036579      -0.00101982
Al       5.15660540       1.22902390       9.96816302        6       0.00275339       0.00008944       0.00241146
Al       8.01868267       1.23466632       9.97282500        6       0.00342140      -0.00021461       0.00197833
Al      10.88170553       1.23303256      10.00596321        6       0.00293684      -0.00085356       0.00112878
Al       3.73305599       3.70387357      10.00703633        6       0.00345073      -0.00072917      -0.00094793
Al       6.59745198       3.71113750      10.00662417        6       0.00307107      -0.00071780       0.00075248
Al       9.46723454       3.71767751      10.02384385        6       0.00206208      -0.00077970       0.00093869
Al      12.32687434       3.70607312      10.02605553        6       0.00294508      -0.00116435      -0.00074758
Al       5.15490722       6.18352154      10.01303909        6       0.00340266      -0.00015890       0.00092524
Al       8.01695506       6.19165190      10.01835372        6       0.00360780      -0.00051344       0.00070778
Al      10.88697993       6.19258937      10.03436508        6       0.00321037      -0.00098387      -0.00061581
Al      13.75616484       6.18225598      10.03574075        6       0.00288926      -0.00086470      -0.00186857
Al       6.57023690       8.67280748       9.97151230        6       0.00398612      -0.00095384       0.00233416
Al       9.44084203       8.67715701       9.95378269        6       0.00340393      -0.00203009       0.00320241
Al      12.31241278       8.67149003       9.99019659        6       0.00358570      -0.00144417       0.00018551
Al      15.17241109       8.66813065       9.99618117        6       0.00351930      -0.00074817       0.00067260
Al       1.01181565       1.99876350      12.40178830        5      -0.00266392       0.01492054      -0.00878229
Al       3.88225242       2.00594020      12.37018286        5       0.00425920       0.00011191       0.00040395
Al       6.74311326       1.99956474      12.37111673        5       0.00422771       0.00902069      -0.00938852
Al       9.60446574       2.00850475      12.38940468        5       0.00035191       0.00538365      -0.01046142
Al       2.44940919       4.48754250      12.38397071        5       0.00237671      -0.00071296       0.00115678
Al       5.30993996       4.49262684      12.38239361        5       0.00332757      -0.00169083       0.00413624
Al       8.16687590       4.49543679      12.39458035        5       0.00562835      -0.00151155      -0.00335334
Al      11.03608916       4.49139836      12.39972141        5      -0.00290908      -0.00092611      -0.00174458
Al       3.87457112       6.97214814      12.38702722        5       0.00799849       0.00209929      -0.00237131
Al       6.73582227       6.97474373      12.38705428        5       0.00358604       0.00203091       0.00357387
Al       9.60441897       6.97628327      12.40098928        5      -0.00947378       0.00142587      -0.01930131
Al      12.47061734       6.97347859      12.38795995        5      -0.00334128       0.00142796      -0.01248653
Al       5.31550021       9.44989126      12.38052463        5      -0.00542373      -0.00681590      -0.01560482
Al       8.17420859       9.45403636      12.37462982        5       0.01014451      -0.02094061      -0.01131425
Al      11.04039332       9.44958389      12.36757654        5      -0.00330040      -0.00206087      -0.01673120
Al      13.89893632       9.45438190      12.36634697        5       0.00828655      -0.00213212      -0.00528751
Al       1.10374575       0.29826303      14.65546317        4       0.00349526      -0.00332021       0.02385884
Al       3.97829930       0.29693036      14.65472423        4      -0.00548429       0.00066000       0.00602174
Al       6.83061022       0.28912946      14.65509392        4       0.00536191       0.00858145       0.00651504
Al       9.69379706       0.31474302      14.64967529        4       0.00143588      -0.01087116       0.01987604
Al       2.54991268       2.78996852      14.66359474        4      -0.00164296      -0.00637371       0.00649082
Al       5.40373388       2.78090972      14.65195991        4       0.00068003       0.00160814       0.01348218
Al       8.25340303       2.80345601      14.66826394        4       0.00761455      -0.01374255       0.01098223
Al      11.12959876       2.79631462      14.68846687        4      -0.00201554      -0.00177892       0.00216890
Al       3.97400936       5.26998867      14.67786543        4       0.00104776      -0.00091471       0.00312302
Al       6.82594204       5.27176337      14.69529787        4      -0.00098140      -0.00351894      -0.01759418
Al       9.68269871       5.26966263      14.69936930        4       0.00840144      -0.00193514      -0.00674698
Al      12.55899536       5.26459525      14.65541454        4       0.00271229       0.00193536       0.01943184
Al       5.39687257       7.73872871      14.68782669        4      -0.00196464       0.00707903       0.00430278
Al       8.25257636       7.73303868      14.69769384        4       0.00373339       0.01183279      -0.00799053
Al      11.12577918       7.74864262      14.65787655        4       0.00106293      -0.00270642       0.01772092
Al      13.97975220       7.74288247      14.65840240        4       0.01449067       0.00477601       0.02112246
Al       2.65862872       1.04511445      16.96107483        3      -0.00657634       0.00056785      -0.00765690
Al       5.51864498       1.05664359      16.95700534        3       0.00281570       0.00612191      -0.01377741
Al       8.38756718       1.06101038      16.95702373        3       0.00076235       0.00517996      -0.01682726
Al      11.24535223       1.06412726      16.96313705        3       0.00297467      -0.00825433      -0.01334247
Al       4.08011574       3.52952889      16.97708354        3       0.00460934       0.01083774      -0.00184736
Al       6.93601912       3.56822084      16.97844480        3       0.00301965      -0.01720877      -0.00389510
Al       9.79532324       3.55621972      17.00853760        3      -0.00287506       0.00036844      -0.02562867
Al      12.67736708       3.54401898      16.96401098        3       0.00497118       0.01069311      -0.01409650
Al       5.51432706       6.02784295      17.00661691        3      -0.01361847       0.00506273       0.00372250
Al       8.34679242       6.01986806      17.00870680        3       0.02370708       0.01345680       0.01194298
Al      11.24267776       6.03374678      16.97208188        3      -0.00132315       0.00432231      -0.01025541
Al      14.11423455       6.02580536      16.97527111        3       0.00075233       0.00520910      -0.00307722
Al       6.93708415       8.48156311      17.01430691        3       0.00739312       0.01592271      -0.00231875
Al       9.81011243       8.49932934      16.96895015        3       0.00119176      -0.00455242      -0.00423682
Al      12.68768156       8.51394776      16.97393652        3       0.00050947      -0.00362228      -0.00320113
Al      15.55633912       8.50254217      17.01659427        3      -0.01198966       0.00527432      -0.03413117
Al       1.29083608       1.89575021      19.19600854        2       0.00428838      -0.00188181       0.01656658
Al       4.16938615       1.84025474      19.22485795        2      -0.00970266       0.00424524       0.02540512
Al       7.03798797       1.85536979      19.20534664        2      -0.00210546       0.00408742       0.02218438
Al       9.91161932       1.85180029      19.23709050        2      -0.00144009      -0.00148580       0.00399724
Al       2.73847263       4.38721378      19.25983239        2      -0.00024921      -0.00180989      -0.00723776
Al       5.59994672       4.37585361      19.28033282        2      -0.00927706      -0.00327061       0.01633412
Al       8.43299552       4.36490782      19.31861004        2       0.01477996      -0.00855864      -0.01333297
Al      11.33007164       4.37194232      19.21050265        2      -0.00156717      -0.00124887       0.00949550
Al       4.16840793       6.86107239      19.30532480        2      -0.00201696       0.00116215       0.00465451
Al       7.04551445       6.80956673      19.37916804        2       0.00386314       0.01522928      -0.00435702
Al       9.88835609       6.84151073      19.25649958        2      -0.00152308       0.00319254       0.01467122
Al      12.76302935       6.83636651      19.24317119        2      -0.00267029       0.00783726       0.00548731
Al       5.58322124       9.33466797      19.28465033        2       0.00104963       0.00034936       0.00433302
Al       8.49205379       9.28887305      19.27135084        2       0.00062831       0.00069324       0.01373521
Al      11.31761075       9.30350851      19.23426475        2      -0.00441228       0.00392405       0.01251053
Al      14.20665919       9.33400230      19.28035580        2       0.00018582       0.00226594       0.00258922
Al       1.44100767       0.26222724      21.44146103        1      -0.01227712      -0.00109932       0.04453119
Al       4.17546618       0.27241416      22.03787132        1       0.00969961       0.00398465      -0.01727881
Al       7.03376011       0.22453921      21.53152990        1       0.00801563      -0.00029767      -0.01411096
Al      10.20770393       0.18402799      22.05556288        1      -0.00396085       0.00018204      -0.01851828
Al       2.84221913       2.76067331      21.51701890        1      -0.01395777      -0.00769692       0.00618595
Al       5.69356477       2.69829237      21.48007142        1      -0.01691315       0.00852249       0.07810903
Al       8.61878825       2.55879722      21.51304840        1      -0.03389017       0.01690360       0.01120016
Al      11.40558522       2.77622338      21.53379262        1       0.00980000      -0.01131995      -0.04048301
Al       4.29949732       5.25162236      21.65433029        1      -0.00562243      -0.00944611       0.00482509
Al       7.27863572       5.02212879      21.80597728        1      -0.05492637       0.02410613      -0.03927010
Al      10.05962647       5.20771017      21.56534394        1      -0.02597901      -0.00819244      -0.00606022
Al      12.85079726       5.19815473      21.60123335        1       0.00720877       0.00744184      -0.00570590
Al       5.68719432       7.65648052      21.65285200        1       0.00422540       0.00150488      -0.01832914
Al       8.46086357       7.61915600      22.01131217        1      -0.00455348       0.00295486      -0.00616169
Al      11.42198161       7.64897648      21.56691177        1      -0.01451565       0.01791013       0.00170289
Al      14.26189999       7.73934618      21.63930207        1       0.00289321       0.00479542      -0.00135815
C        0.63360057       3.56589285      25.02257735        0      -0.05997581      -0.02165856      -0.01604433
C        0.52826170       2.22746784      24.63768904        0       0.10942089      -0.05926833      -0.03809579
C       -0.75821914       1.68462873      24.51091708        0       0.00646745       0.13843906       0.03927946
N       -1.17128433       0.42336575      24.09012316        0      -0.18468520       0.02243073       0.03584622
N       -2.50933293       0.43531197      24.46097715        0      -0.16986507       0.21586022       0.02155002
N       -3.02095261       1.65243249      24.72483155        0       0.21480294      -0.36298952      -0.01990693
C       -1.92001498       2.45145310      24.83333672        0       0.03417499      -0.20978923      -0.02659749
C       -1.80260938       3.80364818      25.20918483        0       0.14608380       0.14002751      -0.01212899
C       -0.52433952       4.34613696      25.28762702        0      -0.00014576      -0.11247341       0.01748499
H        1.62439440       4.02243570      25.08597712        0      -0.01613159       0.00318676      -0.00393415
H        1.40722017       1.60397523      24.43075941        0      -0.07350986       0.10800812       0.01952265
H       -3.12896989      -0.33213476      24.18243148        0       0.01616026       0.01672872      -0.00295710
H       -2.69294689       4.40966792      25.37636496        0      -0.00399707      -0.00875607       0.00749914
H       -0.40043802       5.39345628      25.56416776        0       0.00816354       0.02737525      -0.01445076
