110
Lattice="11.45512985522207 0.0 0.0 5.727564927611035 9.92043345827187 0.0 0.0 0.0 31.691342951089922" Properties=species:S:1:pos:R:3:tags:I:1:forces:R:3 energy=-461.8918151855469 free_energy=-461.8918151855469 stress="0.004872552584856749 2.9765069484710693e-06 -1.9371509552001953e-07 2.9765069484710693e-06 0.004911718890070915 -1.1026859283447266e-06 -1.9371509552001953e-07 -1.1026859283447266e-06 0.00469845300540328" pbc="T T F"
Al       2.33217113       1.22639879      10.02179331        6       0.00071665      -0.00028813      -0.00019383
Al       5.19244742       1.22898400      10.01276164        6       0.00263379      -0.00073122      -0.00115634
Al       8.04648288       1.24050067      10.00909404        6       0.00292360      -0.00067021      -0.00053421
Al      10.90355982       1.24725685       9.97359943        6       0.00275840      -0.00148930       0.00176525
Al       3.73911189       3.70431330      10.00844325        6       0.00347747      -0.00033986      -0.00110843
Al       6.59901042       3.72512830       9.98512118        6       0.00353538      -0.00168919       0.00071724
Al       9.46047540       3.73417781       9.96601388        6       0.00265119      -0.00212065       0.00213842
Al      12.32854836       3.70870523      10.01266378        6       0.00330888      -0.00156033      -0.00068298
Al       5.13106086       6.19680401       9.95291087        6       0.00505684      -0.00089019       0.00233172
Al       7.99154442       6.20787469       9.94449981        6       0.00465009      -0.00082691       0.00387939
Al      10.86414518       6.19291307       9.99652222        6       0.00443716      -0.00077392       0.00108350
Al      13.73318265       6.18320359       9.99882474        6       0.00489582      -0.00082099      -0.00099071
Al       6.57742191       8.68293174       9.97018975        6       0.00371272      -0.00065199       0.00244314
Al       9.45181131       8.67754998       9.97339326        6       0.00314190      -0.00150290       0.00230095
Al      12.32027606       8.66769815       9.99098946        6       0.00332271      -0.00047804       0.00042208
Al      15.17809782       8.67429720       9.99907347        6       0.00371105      -0.00070748      -0.00005472
Al       1.01301527       1.99207292      12.38437110        5      -0.00098659       0.01436496      -0.00831649
Al       3.88013811       1.99942047      12.37530403        5       0.00440358       0.00240349       0.00189631
Al       6.74829862       1.99750945      12.37788467        5       0.00238702       0.01163551      -0.01042300
Al       9.61208562       2.00447953      12.37009573        5       0.00108162       0.00895864      -0.01023415
Al       2.44209989       4.48270536      12.37109082        5       0.00592210      -0.00067547       0.00074366
Al       5.30670150       4.49034672      12.35978211        5       0.00506194      -0.00051500       0.00636244
Al       8.16890273       4.49515900      12.35861141        5       0.00673574      -0.00332360      -0.00157233
Al      11.03327897       4.48766085      12.37806619        5      -0.00511754      -0.00138332      -0.00130883
Al       3.87649139       6.96010734      12.36288589        5       0.00811183       0.00297327      -0.00019859
Al       6.73998423       6.96351145      12.35647345        5       0.00342914       0.00365761       0.00240686
Al       9.60309947       6.96628316      12.38692713        5      -0.00777626       0.00136606      -0.02123329
Al      12.46889714       6.96333870      12.37298971        5      -0.00251122       0.00296246      -0.01140618
Al       5.31590795       9.44428802      12.37482446        5       0.00065095      -0.00780242      -0.01853822
Al       8.17470904       9.44818242      12.37578699        5       0.00949977      -0.02117896      -0.01431321
Al      11.04138439       9.43988538      12.37863109        5      -0.00015148      -0.00131773      -0.02394401
Al      13.90264540       9.44324490      12.37074872        5       0.00525680       0.00029995      -0.00197757
Al       1.11248075       0.29805164      14.65210009        4       0.00092686      -0.00311969       0.02359794
Al       3.98512820       0.29757955      14.66027900        4      -0.00435227       0.00072160       0.00511391
Al       6.83919625       0.28952066      14.65944556        4       0.00526824       0.00725403       0.00417064
Al       9.70024981       0.31424780      14.63969258        4       0.00274308      -0.00930659       0.02222780
Al       2.55365993       2.78793096      14.66001663        4      -0.00077776      -0.00272885       0.00539467
Al       5.41199407       2.78161398      14.64579098        4       0.00097851       0.00230585       0.01366659
Al       8.26875579       2.80431605      14.65277179        4       0.00540322      -0.01049795       0.01095373
Al      11.13875057       2.79220385      14.67558410        4      -0.00193611      -0.00112790       0.00249091
Al       3.98320276       5.26312777      14.66686097        4       0.00056490       0.00041353       0.00283172
Al       6.83828501       5.26945401      14.67297829        4      -0.00152329      -0.00274636      -0.01783771
Al       9.69062610       5.26571484      14.68559663        4       0.00621120      -0.00078551      -0.00493276
Al      12.55958599       5.26165132      14.63952391        4       0.00385299       0.00204593       0.02207633
Al       5.40522284       7.73379164      14.66476572        4      -0.00204503       0.00737022       0.00644599
Al       8.25996656       7.73365257      14.68797200        4       0.00253474       0.00813937      -0.00632547
Al      11.12855714       7.74674223      14.65413557        4       0.00303290      -0.00402963       0.01307418
Al      13.98360967       7.73371451      14.64327123        4       0.01652991       0.00598742       0.02314616
Al       2.67132840       1.05469357      16.95992952        3      -0.00408277      -0.00042810      -0.00415217
Al       5.53743566       1.06607997      16.95756331        3       0.00006309       0.00625603      -0.01432173
Al       8.40521031       1.07220129      16.95212786        3       0.00184067       0.00154870      -0.02109557
Al      11.26226984       1.07015293      16.96207985        3       0.00261612      -0.00882788      -0.01770327
Al       4.10035410       3.53846768      16.96604176        3       0.00051098       0.01057271      -0.00007693
Al       6.95452008       3.57586557      16.96346423        3       0.00260610      -0.01592346      -0.00291722
Al       9.81350932       3.55973774      17.00073055        3      -0.00375502       0.00168874      -0.02978477
Al      12.68666504       3.55061911      16.95638431        3       0.00753914       0.01024634      -0.01318259
Al       5.53340882       6.03516028      16.98706037        3      -0.01782210       0.00499185       0.00591353
Al       8.36377680       6.02801599      16.99656277        3       0.02369860       0.01271340       0.01088518
Al      11.25623264       6.04012880      16.96624540        3      -0.00122427       0.00313485      -0.00999909
Al      14.12542544       6.03412618      16.96349991        3       0.00240707       0.00340234      -0.00322127
Al       6.95467560       8.48786598      17.00880315        3       0.00794190       0.01675186      -0.00582890
Al       9.82756386       8.50772164      16.97046574        3      -0.00023224      -0.00426686      -0.00708276
Al      12.70431868       8.52102809      16.96661835        3       0.00122531      -0.00413922      -0.00382262
Al      15.57641070       8.50977747      16.99927700        3      -0.01392803       0.00317148      -0.03294558
Al       1.30871147       1.90411106      19.19900641        2       0.00377194      -0.00108900       0.01450610
Al       4.18951814       1.86024815      19.21920826        2      -0.00915704       0.00142662       0.02749852
Al       7.06305942       1.87362464      19.19927372        2      -0.00428187       0.00240695       0.02229081
Al       9.93114975       1.85854429      19.23457296        2      -0.00185580      -0.00075294       0.00585608
Al       2.75236891       4.39481735      19.24327965        2       0.00080437      -0.00137907      -0.00316211
Al       5.61645777       4.38837650      19.27013937        2      -0.00889954      -0.00004587       0.01575977
Al       8.45205983       4.37914060      19.29861318        2       0.01344969      -0.00745298      -0.00999394
Al      11.34354329       4.37853202      19.20627395        2      -0.00020861      -0.00092537       0.00738222
Al       4.18735666       6.86659832      19.29311334        2      -0.00127573       0.00149571       0.00483127
Al       7.05928312       6.82442246      19.36190027        2       0.00772867       0.01177678      -0.00414981
Al       9.91058575       6.85693811      19.25480987        2      -0.00161883       0.00347471       0.01202674
Al      12.78202461       6.84871463      19.23603299        2      -0.00393780       0.00708551       0.00584749
Al       5.60898013       9.33798282      19.28052349        2      -0.00035346       0.00202104       0.00397896
Al       8.51920284       9.30319628      19.27564867        2      -0.00194971      -0.00015692       0.00987993
Al      11.34912616       9.31870018      19.23368826        2      -0.00603423       0.00202309       0.00908274
Al      14.23291240       9.34263744      19.26773458        2      -0.00074750       0.00217345       0.00320199
Al       1.46074395       0.27405185      21.44750723        1      -0.01324615       0.00117471       0.04441683
Al       4.20550165       0.29934030      22.03313733        1       0.00731872       0.00402832      -0.01285844
Al       7.07140192       0.24649660      21.52244488        1       0.00523847      -0.00161119      -0.01773106
Al      10.22178506       0.20511446      22.03807236        1      -0.00759892      -0.00081991      -0.01731179
Al       2.85943603       2.77909561      21.51149160        1      -0.01410701      -0.00806137       0.00761177
Al       5.71706862       2.72044680      21.47430159        1      -0.01625257       0.00941958       0.08132783
Al       8.63796651       2.59291451      21.50836816        1      -0.03288323       0.01501255       0.01022001
Al      11.42380993       2.79459517      21.54014700        1       0.00926385      -0.01463244      -0.03816257
Al       4.31485250       5.27006137      21.66254465        1      -0.00437533      -0.00660077       0.00699369
Al       7.28995519       5.05215974      21.78084703        1      -0.05275168       0.02183326      -0.03873337
Al      10.07674624       5.22447511      21.55542080        1      -0.02520082      -0.00949649      -0.00457532
Al      12.87231803       5.20962527      21.58570574        1       0.00715457       0.00753366      -0.00475827
Al       5.71421081       7.67216039      21.65224105        1       0.00443462       0.00212385      -0.01704111
Al       8.49878549       7.63613734      22.00185796        1      -0.00621303       0.00134691      -0.00198161
Al      11.45540587       7.65959655      21.58777542        1      -0.01307438       0.01819670      -0.00015554
Al      14.29649838       7.74701698      21.62456793        1       0.00064495       0.00489820      -0.00321799
C        0.53596870       3.54836753      25.10697451        0      -0.06531686      -0.01491670      -0.01669464
C        0.45760228       2.22385237      24.67396028        0       0.11164717      -0.06675147      -0.03966262
C       -0.81808132       1.65934105      24.53271366        0       0.02877712       0.14018570       0.04162159
N       -1.20527778       0.40109077      24.08339457        0      -0.17986818       0.01630602       0.03301942
N       -2.54017257       0.37440222      24.45982004        0      -0.18565804       0.21467109       0.02558650
N       -3.07632024       1.57139067      24.75866840        0       0.20762748      -0.38035166      -0.02157531
C       -1.99329876       2.39135786      24.88203240        0       0.02654558      -0.20137666      -0.02356167
C       -1.90368305       3.72851769      25.31250465        0       0.14643586       0.14994597      -0.01226207
C       -0.63717155       4.29322043      25.40612144        0       0.00394854      -0.11923851       0.01567704
H        1.51667440       4.02205223      25.18982346        0      -0.00939524       0.00790352      -0.00401921
H        1.34860219       1.62403271      24.44988298        0      -0.07346537       0.10606585       0.01658784
H       -3.14295331      -0.40019863      24.16557274        0       0.01129628       0.01045227      -0.00510210
H       -2.80527255       4.30485969      25.51880566        0      -0.00703323      -0.00837813       0.00767915
H       -0.53353622       5.32838279      25.73055889        0       0.01292831       0.04137739      -0.01323875
