110
Lattice="11.45512985522207 0.0 0.0 5.727564927611035 9.92043345827187 0.0 0.0 0.0 31.691342951089922" Properties=species:S:1:pos:R:3:tags:I:1:forces:R:3 energy=-461.840087890625 free_energy=-461.840087890625 stress="0.0036699718330055475 1.7727725207805634e-06 -5.289912223815918e-07 1.7727725207805634e-06 0.0037427772767841816 3.1618401408195496e-07 -5.289912223815918e-07 3.1618401408195496e-07 0.0036854962818324566" pbc="T T F"
Al       2.29136692       0.71705917      10.03357679        6      -0.00024133      -0.00025802       0.00001720
Al       5.15389106       0.72062436      10.02428702        6      -0.00026130      -0.00032249      -0.00020798
Al       8.02288012       0.71756808      10.02420077        6      -0.00017906      -0.00025400      -0.00004172
Al      10.88670066       0.71924748      10.02610676        6      -0.00017723      -0.00029134       0.00007535
Al       3.72218797       3.19963433      10.02808436        6      -0.00015908      -0.00023913      -0.00020570
Al       6.58738717       3.19526602      10.02361006        6      -0.00010065      -0.00022005       0.00010509
Al       9.45275963       3.19798959      10.01894197        6      -0.00010453      -0.00020429       0.00029667
Al      12.31590317       3.20001279      10.02583899        6      -0.00024170      -0.00025035       0.00016037
Al       5.15312199       5.67467306      10.02883420        6      -0.00008157      -0.00020462       0.00009352
Al       8.01291456       5.67576147      10.02627480        6      -0.00004148      -0.00014913       0.00018107
Al      10.87708027       5.68093371      10.02350387        6      -0.00019490      -0.00015428       0.00003848
Al      13.74282222       5.68337051      10.02434158        6      -0.00021006      -0.00032749      -0.00010792
Al       6.58424796       8.15674025      10.02808473        6      -0.00010367      -0.00022937       0.00033313
Al       9.44629161       8.15902796      10.02547393        6      -0.00018241      -0.00025158       0.00017652
Al      12.31023052       8.16379250      10.01774976        6      -0.00019039      -0.00026637       0.00008461
Al      15.18057591       8.15799002      10.02829961        6      -0.00016490      -0.00017906       0.00012847
Al       0.89345393       1.52566695      12.39138770        5      -0.00008605       0.00063597      -0.00022523
Al       3.75947214       1.52509710      12.38872410        5      -0.00091940       0.00133838       0.00080783
Al       6.62160433       1.52794525      12.38339739        5      -0.00038275       0.00071188      -0.00176068
Al       9.48595618       1.52936979      12.38050339        5      -0.00052361      -0.00052916       0.00219808
Al       2.32679921       4.00603968      12.38593588        5      -0.00043030       0.00066067      -0.00089572
Al       5.19108814       4.00656669      12.38887807        5       0.00061204       0.00070614      -0.00207220
Al       8.05255319       4.00834717      12.38324714        5      -0.00006499       0.00024465      -0.00105954
Al      10.91461783       4.00571235      12.38145130        5       0.00001345       0.00104421       0.00016656
Al       3.75885569       6.48832672      12.38672369        5      -0.00025575      -0.00048277      -0.00108775
Al       6.62341278       6.48787963      12.39152941        5      -0.00104283      -0.00065874      -0.00145185
Al       9.48321870       6.49011601      12.38465752        5      -0.00090580      -0.00096722       0.00114098
Al      12.34669549       6.48871186      12.38000177        5      -0.00032659       0.00024222       0.00039725
Al       5.19109554       8.96833435      12.39107211        5      -0.00013464      -0.00076926      -0.00131212
Al       8.05133260       8.96840783      12.39235777        5       0.00045784      -0.00125442       0.00054200
Al      10.91599798       8.96888158      12.38386746        5      -0.00065143      -0.00036956      -0.00083588
Al      13.78045826       8.97094255      12.38267193        5      -0.00006406      -0.00167600      -0.00234116
Al       0.90517633      -0.13680452      14.68057345        4      -0.00067081      -0.00080683      -0.00195983
Al       3.76432743      -0.13366023      14.67210132        4      -0.00015756      -0.00021692      -0.00029253
Al       6.62829109      -0.12905808      14.65901451        4      -0.00043969      -0.00008165      -0.00020518
Al       9.49403345      -0.13042208      14.66296222        4      -0.00030926      -0.00033308      -0.00088207
Al       2.33950119       2.34354478      14.66858818        4      -0.00076270      -0.00037340       0.00090528
Al       5.20210090       2.34828502      14.66975089        4      -0.00015413       0.00003440      -0.00046576
Al       8.06036473       2.35041405      14.66148817        4      -0.00001904       0.00026451       0.00131719
Al      10.92322616       2.34518909      14.66671589        4      -0.00045150       0.00016140      -0.00111220
Al       3.77155473       4.82241376      14.66673638        4      -0.00012607      -0.00006093      -0.00078154
Al       6.63523022       4.82645043      14.67340601        4      -0.00055361      -0.00045635      -0.00118794
Al       9.49084048       4.82691696      14.66267289        4      -0.00052969      -0.00000339       0.00082997
Al      12.35600906       4.82379144      14.65483601        4      -0.00010840       0.00001927       0.00139502
Al       5.20290623       7.30293111      14.67003699        4       0.00003883       0.00024304       0.00170100
Al       8.06050675       7.30643418      14.67677872        4      -0.00035439      -0.00017272       0.00094920
Al      10.92051941       7.31014158      14.66007142        4      -0.00049376      -0.00033155      -0.00067632
Al      13.78910377       7.30736227      14.65655009        4       0.00003477      -0.00029793      -0.00079060
Al       2.33220171       0.67395730      16.97479015        3      -0.00107286       0.00048370       0.00077383
Al       5.18765652       0.69631340      16.95599152        3       0.00107227      -0.00149571       0.00200319
Al       8.04858866       0.70316507      16.94414796        3       0.00077672      -0.00103672       0.00060315
Al      10.91994682       0.68706255      16.95529374        3      -0.00009663      -0.00055845       0.00151684
Al       3.77157694       3.15629573      16.96177061        3       0.00011344       0.00071165       0.00062177
Al       6.62711784       3.17152133      16.97615051        3       0.00024338      -0.00057828      -0.00043058
Al       9.47800501       3.17407224      16.96069739        3      -0.00048165      -0.00105878      -0.00219151
Al      12.34991808       3.15871725      16.94659789        3       0.00028362      -0.00111493      -0.00054653
Al       5.20630197       5.63650008      16.96453743        3      -0.00064264      -0.00118399      -0.00292658
Al       8.04899485       5.64206786      16.97930956        3       0.00144372      -0.00059624      -0.00427919
Al      10.91074008       5.64777084      16.93959639        3       0.00009577      -0.00019102       0.00053762
Al      13.79238306       5.63921695      16.93503310        3      -0.00114292      -0.00002016      -0.00028759
Al       6.63071166       8.11875650      16.98996020        3      -0.00031694       0.00015338      -0.00425066
Al       9.47484546       8.12750076      16.96777897        3       0.00051985      -0.00015364       0.00158006
Al      12.34537626       8.13086039      16.93344987        3       0.00015581      -0.00014101       0.00240049
Al      15.22436510       8.12816264      16.94039304        3      -0.00023559       0.00012130       0.00212486
Al       0.88319794       1.52321385      19.21878315        2       0.00079583      -0.00127756       0.00353286
Al       3.76128747       1.52399265      19.22573611        2      -0.00017012      -0.00124991       0.00087778
Al       6.61688921       1.52995744      19.23219112        2       0.00137646       0.00308216      -0.00419931
Al       9.47645307       1.53580245      19.19800056        2      -0.00081961      -0.00018763      -0.00061609
Al       2.32217392       3.99996149      19.17178500        2       0.00040850       0.00028307       0.00116936
Al       5.20373552       4.00154114      19.25376933        2       0.00040515      -0.00038577       0.00089632
Al       8.04657495       4.01302227      19.27750111        2       0.00075544      -0.00163996      -0.00380930
Al      10.92014140       4.01653240      19.18562262        2       0.00048419       0.00005362      -0.00130512
Al       3.76788774       6.47956700      19.17329224        2      -0.00013419       0.00108490      -0.00081713
Al       6.61616486       6.45832742      19.25306026        2       0.00217535      -0.00000704       0.00042404
Al       9.48376599       6.47791170      19.21002189        2      -0.00044569      -0.00103958      -0.00277075
Al      12.34717554       6.48254717      19.17686429        2      -0.00051444      -0.00124439      -0.00182653
Al       5.18984226       8.97723755      19.21879537        2       0.00091680       0.00009700       0.00197196
Al       8.04706553       8.97852722      19.29307047        2      -0.00216261      -0.00198493      -0.00326808
Al      10.91847209       8.97248737      19.19241880        2      -0.00105807      -0.00184831       0.00232160
Al      13.77596393       8.97645993      19.15992100        2       0.00129869      -0.00013863       0.00119634
Al       0.78892616      -0.11203358      21.79658275        1       0.00207872      -0.00097064      -0.00103191
Al       3.69297397      -0.08895034      21.64034164        1       0.00098849      -0.00040679       0.00051843
Al       6.57234955      -0.10437693      21.51311231        1       0.00310549      -0.00131967       0.00304773
Al       9.41731346      -0.07958061      21.52021381        1       0.00227168      -0.00390740       0.00106399
Al       2.26134076       2.39874494      21.52959660        1       0.00057768      -0.00241761       0.00127242
Al       5.14720295       2.37520072      21.61116473        1       0.00034440       0.00033475      -0.00006525
Al       8.01060706       2.40359310      21.61075924        1       0.00357451      -0.00079289      -0.00059835
Al      10.88254228       2.40229987      21.51745801        1       0.00043675       0.00067085       0.00110497
Al       3.70142494       4.86209370      21.45894394        1       0.00201388      -0.00234703       0.00088754
Al       6.54899394       4.86571091      21.81550073        1      -0.00061555      -0.00069097       0.00168015
Al       9.49114344       4.86767269      21.56838973        1      -0.00057910      -0.00169813      -0.00460183
Al      12.33019044       4.87795001      21.52971681        1       0.00078790      -0.00215079      -0.00036190
Al       5.14470914       7.33982676      21.53336410        1       0.00379873      -0.00074102      -0.00096614
Al       8.04582667       7.34059915      21.58293656        1      -0.00071195      -0.00251044      -0.00025482
Al      10.94346285       7.32531196      21.49863951        1      -0.00151609      -0.00041633       0.00095982
Al      13.77052910       7.32588660      21.41126579        1       0.00134098       0.00130894       0.00702527
C        2.39862502       6.48164740      24.69128843        0      -0.01197853       0.02276537       0.00265169
C        2.38484602       5.10024428      24.78284719        0      -0.02223593      -0.01710241       0.00501013
C        1.14108846       4.47587443      25.04157882        0      -0.02716898      -0.01472855       0.00853721
N        0.82670127       3.16367404      25.19303138        0      -0.01367536       0.02542453       0.00036594
N       -0.49764069       3.18824459      25.40177583        0       0.00130182       0.02427002      -0.00554585
N       -1.10362177       4.38906191      25.35731228        0       0.01167292      -0.02744523       0.00376312
C       -0.07473443       5.24775053      25.15358722        0       0.01897219       0.00130938      -0.00272956
C       -0.03445250       6.65537778      25.01228565        0       0.00454295      -0.02172392       0.00203324
C        1.19842446       7.25181951      24.80429901        0      -0.00065288      -0.01170408       0.00065389
H        3.33947102       7.00154641      24.49358719        0       0.01427775       0.00410788       0.00021245
H        3.28321091       4.49950503      24.63400945        0       0.01436700      -0.01388695       0.00188485
H       -1.03791838       2.32131205      25.41985623        0       0.00957747       0.03539798      -0.00626210
H       -0.95601463       7.23655893      25.04868318        0      -0.01060345       0.01018884      -0.00213386
H        1.26437152       8.33396743      24.67946375        0       0.00207675       0.02157941      -0.00122110
