110
Lattice="11.45512985522207 0.0 0.0 5.727564927611035 9.92043345827187 0.0 0.0 0.0 31.691342951089922" Properties=species:S:1:pos:R:3:tags:I:1:forces:R:3 energy=-461.834716796875 free_energy=-461.834716796875 stress="0.004581131972372532 2.9834918677806854e-06 -2.8777867555618286e-07 2.9834918677806854e-06 0.00462968647480011 -1.469627022743225e-06 -2.8777867555618286e-07 -1.469627022743225e-06 0.0043703606352210045" pbc="T T F"
Al       2.29644130       1.23036807      10.03548614        6       0.00222955      -0.00027774      -0.00078139
Al       5.15760001       1.23795417       9.98339554        6       0.00365733      -0.00066183       0.00061704
Al       8.01914725       1.24246318       9.98548891        6       0.00355351      -0.00038849       0.00087590
Al      10.87747715       1.24523130       9.99982213        6       0.00362144      -0.00152988       0.00017230
Al       3.72845190       3.71065352      10.00559552        6       0.00358705      -0.00041465      -0.00101663
Al       6.59375507       3.72282012      10.00758057        6       0.00366255      -0.00134479      -0.00058037
Al       9.45815847       3.73398239      10.01366512        6       0.00273599      -0.00220963      -0.00007822
Al      12.31897659       3.71245838      10.03027523        6       0.00346895      -0.00136621      -0.00172023
Al       5.14797651       6.19732964       9.99603082        6       0.00396260      -0.00116696       0.00034088
Al       8.00954127       6.20712608      10.00659433        6       0.00361175      -0.00070658       0.00122945
Al      10.87772523       6.20358788      10.01969303        6       0.00346575      -0.00113644       0.00024584
Al      13.74520530       6.18842093      10.02564935        6       0.00344954      -0.00077511      -0.00186702
Al       6.56537118       8.68422429       9.97448380        6       0.00400404      -0.00074225       0.00208798
Al       9.43662328       8.68853758       9.94917716        6       0.00345796      -0.00182375       0.00336491
Al      12.30601147       8.67905733       9.98904990        6       0.00406154      -0.00159875       0.00020732
Al      15.16725650       8.67591715      10.00297110        6       0.00375485      -0.00089187      -0.00031578
Al       1.00540913       1.99779087      12.39887556        5      -0.00174209       0.01362327      -0.00707894
Al       3.87483673       2.00368149      12.37100236        5       0.00470399       0.00187175       0.00321758
Al       6.73925347       1.99857437      12.37362120        5       0.00380292       0.01007257      -0.01037164
Al       9.60047775       2.00782095      12.38444588        5       0.00138021       0.00799456      -0.00875702
Al       2.44005739       4.48646043      12.38034154        5       0.00484769       0.00001595       0.00227604
Al       5.30235864       4.49230379      12.37548310        5       0.00382249      -0.00065192       0.00643218
Al       8.16140610       4.49751253      12.38747525        5       0.00811886      -0.00295706      -0.00288676
Al      11.03072808       4.49257579      12.39530216        5      -0.00525779      -0.00070371      -0.00068216
Al       3.87139412       6.96880289      12.37956471        5       0.00601837       0.00238254       0.00131605
Al       6.73377172       6.97340231      12.38401390        5       0.00386896       0.00325775       0.00057178
Al       9.60125069       6.97644181      12.39639992        5      -0.00868230       0.00003011      -0.01916923
Al      12.46493014       6.97263646      12.38387277        5      -0.00222359       0.00218515      -0.01167400
Al       5.30853174       9.44937243      12.38311545        5       0.00130948      -0.00713109      -0.01899129
Al       8.17174417       9.45416277      12.37568752        5       0.00823639      -0.02136740      -0.01399510
Al      11.03461539       9.44634631      12.37361763        5      -0.00052229      -0.00006562      -0.02455715
Al      13.89534157       9.45130178      12.36953779        5       0.00516932      -0.00001025      -0.00310882
Al       1.11061724       0.29916055      14.65766694        4      -0.00028253      -0.00336564       0.02386385
Al       3.98116588       0.30074178      14.66039348        4      -0.00327443       0.00058562       0.00376644
Al       6.83359034       0.29067955      14.65807468        4       0.00546286       0.00771593       0.00460953
Al       9.69518030       0.31413145      14.64729795        4       0.00233080      -0.00866649       0.02325246
Al       2.55086105       2.78993628      14.66355313        4      -0.00089151      -0.00299105       0.00491162
Al       5.40853824       2.78111384      14.64894886        4       0.00028223       0.00225249       0.01192817
Al       8.26064092       2.80255690      14.66509366        4       0.00580317      -0.01074215       0.01011819
Al      11.13305181       2.79468371      14.68662520        4      -0.00326381      -0.00190622       0.00177333
Al       3.97903712       5.26689776      14.67649275        4       0.00012512       0.00010837       0.00204207
Al       6.83104251       5.27266838      14.68820192        4      -0.00032803      -0.00383130      -0.01806920
Al       9.68822876       5.26879962      14.69756041        4       0.00484489      -0.00031914      -0.00479145
Al      12.55787101       5.26732695      14.65072460        4       0.00395578       0.00121305       0.02115946
Al       5.40099202       7.73867286      14.68061897        4      -0.00319576       0.00877437       0.00653021
Al       8.25865576       7.73779507      14.69734017        4       0.00272175       0.00780130      -0.00632426
Al      11.12664745       7.75236368      14.66008352        4       0.00181960      -0.00410520       0.01495063
Al      13.98135260       7.74097816      14.65485968        4       0.01604939       0.00512712       0.02167751
Al       2.66673314       1.05022656      16.95951712        3      -0.00535487       0.00121030      -0.00139945
Al       5.53236505       1.06277419      16.95679592        3      -0.00032985       0.00735147      -0.01244491
Al       8.39829602       1.06843870      16.95793784        3       0.00212692       0.00090528      -0.02136912
Al      11.25661696       1.06618942      16.96637805        3       0.00195074      -0.00891996      -0.01663710
Al       4.09310882       3.53485130      16.96517709        3       0.00073381       0.01051670       0.00107787
Al       6.94793828       3.57300079      16.97133764        3       0.00183160      -0.01688408      -0.00440626
Al       9.80533069       3.55664278      17.00916432        3      -0.00385945       0.00119364      -0.03117521
Al      12.67947234       3.54682228      16.96086905        3       0.00728319       0.01024250      -0.01495248
Al       5.52580801       6.03345759      16.99451123        3      -0.01908653       0.00517057       0.00705240
Al       8.35586769       6.02504564      17.00391717        3       0.02442689       0.01335496       0.01111631
Al      11.24828729       6.04053424      16.97076071        3      -0.00148410       0.00251405      -0.01109373
Al      14.11690472       6.03153738      16.96881969        3       0.00297176       0.00463734      -0.00574585
Al       6.94931406       8.48679948      17.01526865        3       0.00708251       0.01608168      -0.00510295
Al       9.82155902       8.50882732      16.97510169        3      -0.00043088      -0.00734041      -0.00874819
Al      12.69574233       8.52094675      16.97224399        3       0.00192532      -0.00441055      -0.00459477
Al      15.56835037       8.50788213      17.00827268        3      -0.01358072       0.00458868      -0.03305594
Al       1.30059522       1.89691602      19.19987731        2       0.00352098      -0.00110260       0.01438124
Al       4.18014158       1.85596081      19.21658355        2      -0.00969666      -0.00014586       0.02627446
Al       7.05559614       1.86462417      19.20350891        2      -0.00498143       0.00208528       0.02192923
Al       9.92348053       1.85054929      19.23784893        2      -0.00199240      -0.00019758       0.00682265
Al       2.73746302       4.38532088      19.23733676        2       0.00180283      -0.00062691      -0.00191736
Al       5.60648779       4.37677218      19.26761375        2      -0.00840770       0.00166650       0.01648398
Al       8.44157397       4.36996636      19.30710490        2       0.01429819      -0.00697390      -0.01033354
Al      11.33310660       4.37433264      19.20728974        2      -0.00036961      -0.00113141       0.00813749
Al       4.17370481       6.86162723      19.29152115        2      -0.00067854       0.00080556       0.00499261
Al       7.05031892       6.81644706      19.36731789        2       0.00692917       0.01219050      -0.00375150
Al       9.89768357       6.84722414      19.25486216        2      -0.00103290       0.00388001       0.01208429
Al      12.77058121       6.84350031      19.23605757        2      -0.00352951       0.00748880       0.00485740
Al       5.60223624       9.32880503      19.28812801        2      -0.00121248       0.00295281       0.00373449
Al       8.51298513       9.29488092      19.28104665        2      -0.00139530       0.00082427       0.00885222
Al      11.33827828       9.31664490      19.23646944        2      -0.00610662       0.00148964       0.00913331
Al      14.22399865       9.33411403      19.27564283        2      -0.00088246       0.00299712       0.00231862
Al       1.45338829       0.26227389      21.44636723        1      -0.01321040       0.00162644       0.04694772
Al       4.18940285       0.27294091      22.03016875        1       0.00713159       0.00605934      -0.00880055
Al       7.06383767       0.23563930      21.53033334        1       0.00377963      -0.00174375      -0.01702207
Al      10.22586413       0.19298269      22.04118395        1      -0.00892758      -0.00103467      -0.01775982
Al       2.84440020       2.76266174      21.50678618        1      -0.01332081      -0.00660956       0.00829070
Al       5.70297304       2.69889053      21.46948499        1      -0.01683734       0.00945938       0.08237434
Al       8.62733441       2.58208645      21.51323150        1      -0.03253981       0.01450462       0.01040097
Al      11.41152095       2.79083261      21.54021772        1       0.00927527      -0.01407458      -0.03864750
Al       4.29023113       5.23841223      21.63130476        1      -0.00228199      -0.00343122       0.00787967
Al       7.26697916       5.03757122      21.78377294        1      -0.05116827       0.02190436      -0.03940903
Al      10.05909457       5.21722891      21.56019157        1      -0.02619334      -0.00873196      -0.00486608
Al      12.85056672       5.20679027      21.58232178        1       0.00937786       0.00569131      -0.00388979
Al       5.68899635       7.65056591      21.64672834        1       0.00593344       0.00191632      -0.01709317
Al       8.46848188       7.61846233      22.00336518        1      -0.00482760       0.00225115      -0.00181878
Al      11.43489567       7.65604924      21.57174399        1      -0.01249773       0.01751583       0.00142874
Al      14.28088162       7.73793072      21.63546095        1       0.00071406       0.00454877      -0.00304387
C        0.60119061       3.54646487      25.06397885        0      -0.06161145      -0.01370447      -0.01757717
C        0.50752811       2.21493714      24.65556706        0       0.11389069      -0.06759738      -0.04108113
C       -0.77446156       1.66495331      24.51549725        0       0.02494551       0.13882060       0.04094496
N       -1.17576652       0.40481026      24.08191449        0      -0.17967708       0.01812899       0.03241103
N       -2.51309536       0.40140820      24.45250677        0      -0.18103383       0.21356137       0.02425873
N       -3.03568318       1.61123586      24.72795757        0       0.20897527      -0.37614888      -0.02045706
C       -1.94195711       2.41813393      24.84568904        0       0.02475352      -0.20448349      -0.02398578
C       -1.83702191       3.76327660      25.24702310        0       0.14887059       0.15060805      -0.01019883
C       -0.56348826       4.31335478      25.33875465        0       0.00101296      -0.11676396       0.01549636
H        1.58799955       4.00886530      25.14016477        0      -0.01097590       0.00711514      -0.00329709
H        1.39184643       1.60088992      24.44326661        0      -0.07459696       0.10697006       0.01776644
H       -3.12570277      -0.36855182      24.16641230        0       0.01123161       0.00982804      -0.00409391
H       -2.73243287       4.35796262      25.42672464        0      -0.00591697      -0.00830762       0.00786078
H       -0.44878999       5.35530208      25.63718810        0       0.01196037       0.03654500      -0.01226706
