110
Lattice="11.45512985522207 0.0 0.0 5.727564927611035 9.92043345827187 0.0 0.0 0.0 31.691342951089922" Properties=species:S:1:pos:R:3:tags:I:1:forces:R:3 energy=-461.8690185546875 free_energy=-461.8690185546875 stress="0.0047293719835579395 2.8493814170360565e-06 -2.989545464515686e-07 2.8493814170360565e-06 0.004781372379511595 -1.2186355888843536e-06 -2.989545464515686e-07 -1.2186355888843536e-06 0.004553628619760275" pbc="T T F"
Al       2.33703828       1.22123980      10.03344984        6       0.00134400      -0.00006305       0.00040468
Al       5.19154191       1.23103909       9.96644429        6       0.00296220      -0.00083504       0.00192459
Al       8.05197595       1.24007765       9.96923521        6       0.00369342      -0.00121928       0.00157138
Al      10.92028272       1.23739388      10.00595064        6       0.00277718      -0.00151024       0.00059762
Al       3.76857210       3.70600305      10.00640213        6       0.00225521      -0.00053203       0.00034476
Al       6.63128656       3.71426138      10.00882570        6       0.00266680      -0.00107946       0.00052145
Al       9.50345821       3.71867285      10.02530656        6       0.00139830      -0.00069827       0.00131477
Al      12.36183284       3.71110021      10.01839534        6       0.00300420      -0.00174125      -0.00094232
Al       5.18346595       6.18591869      10.02751995        6       0.00410032      -0.00106060      -0.00126303
Al       8.04617398       6.18989106      10.01876552        6       0.00258814       0.00017004       0.00231282
Al      10.91850848       6.19266380      10.03886154        6       0.00235765      -0.00043757       0.00039553
Al      13.78576473       6.18694049      10.03796162        6       0.00259425      -0.00085661      -0.00125865
Al       6.60275358       8.67071790       9.97735513        6       0.00367173      -0.00048113       0.00227604
Al       9.47366092       8.67193172       9.97820512        6       0.00301195      -0.00148870       0.00252749
Al      12.34501921       8.67207884       9.99915312        6       0.00274685      -0.00091780       0.00096315
Al      15.20494126       8.67265703      10.00019487        6       0.00280457      -0.00028046       0.00094808
Al       1.03157443       1.99509900      12.39544380        5       0.00138369       0.01222150      -0.00834241
Al       3.90327884       2.00232469      12.36531520        5       0.00351622       0.00103839       0.00318080
Al       6.76765104       1.99611087      12.36848297        5       0.00209866       0.00786372      -0.01049492
Al       9.62442262       2.00078686      12.38713246        5       0.00297353       0.00790527      -0.01000171
Al       2.46773642       4.48545457      12.38360593        5       0.00582688      -0.00234066      -0.00043006
Al       5.32921483       4.48644231      12.38406596        5       0.00461648       0.00070006       0.00465656
Al       8.18981395       4.49069317      12.39662385        5       0.00647325      -0.00165159      -0.00318827
Al      11.06167530       4.48626191      12.39855325        5      -0.00703446      -0.00000406      -0.00114506
Al       3.89668720       6.97023441      12.39264630        5       0.00721531       0.00119606       0.00026294
Al       6.76168061       6.97094523      12.39723497        5       0.00255989       0.00205685      -0.00118771
Al       9.62611044       6.97111750      12.40688457        5      -0.00724546       0.00144071      -0.01764455
Al      12.49262800       6.97217524      12.39331510        5      -0.00380324       0.00027084      -0.01325898
Al       5.33454147       9.44632554      12.38345721        5      -0.00009436      -0.00686278      -0.01404496
Al       8.19523451       9.45001174      12.38177817        5       0.00863216      -0.01909226      -0.01419027
Al      11.06282054       9.44703373      12.37351778        5      -0.00374764      -0.00120068      -0.02158108
Al      13.92132015       9.44832107      12.36744631        5       0.00530111       0.00110681      -0.00235510
Al       1.12514640       0.29836060      14.65780254        4       0.00057768      -0.00401766       0.02325544
Al       3.99261438       0.30490527      14.65243759        4      -0.00118678      -0.00063634       0.00667634
Al       6.85002596       0.29491170      14.65302371        4       0.00512242       0.00593220       0.00761237
Al       9.71301949       0.31246757      14.65074729        4       0.00190518      -0.00997319       0.02109615
Al       2.56686990       2.78979998      14.66069576        4       0.00048456      -0.00297241       0.00530404
Al       5.42708530       2.78294647      14.64642217        4      -0.00092026       0.00080467       0.01398411
Al       8.27899970       2.79756211      14.66838193        4       0.00359329      -0.00760864       0.00791435
Al      11.15247490       2.79066425      14.68429909        4      -0.00202830      -0.00111192       0.00251843
Al       3.99146441       5.26967987      14.67927297        4       0.00120031      -0.00018483       0.00355561
Al       6.84821774       5.27323514      14.69742338        4      -0.00216477      -0.00458383      -0.01783601
Al       9.70655947       5.26793132      14.70099909        4       0.00509489      -0.00088859      -0.00479557
Al      12.57579459       5.26725325      14.65585481        4       0.00401725       0.00087238       0.02020116
Al       5.41929250       7.74036427      14.69446497        4      -0.00251726       0.00618400       0.00450211
Al       8.27711374       7.73749831      14.70538852        4       0.00154807       0.00809245      -0.00592875
Al      11.14564118       7.75704556      14.66479770        4       0.00162148      -0.00635493       0.01397451
Al      14.00004305       7.74708956      14.66085888        4       0.01466524       0.00301806       0.02347836
Al       2.67355674       1.04493945      16.95779924        3      -0.00278683      -0.00032182      -0.00121840
Al       5.53758868       1.05717326      16.95445573        3       0.00092022       0.00506355      -0.01319934
Al       8.40497241       1.06331335      16.95976128        3       0.00198850      -0.00107003      -0.02007168
Al      11.26548579       1.05777430      16.96644492        3       0.00336124      -0.00850215      -0.01421293
Al       4.10465966       3.53222120      16.96888360        3       0.00009301       0.01102581      -0.00258672
Al       6.95265423       3.56792694      16.97345761        3       0.00256295      -0.01519776      -0.00169573
Al       9.81511391       3.54905273      16.99989381        3      -0.00177706       0.00367087      -0.02747143
Al      12.69294404       3.54050265      16.96314619        3       0.00597669       0.00919617      -0.01298425
Al       5.53251046       6.03242980      17.01204451        3      -0.01355063       0.00334354       0.00241737
Al       8.36348766       6.02172773      17.00979856        3       0.02393914       0.01227651       0.00904068
Al      11.25930073       6.03433959      16.97455573        3      -0.00077154       0.00298289      -0.00761753
Al      14.13115685       6.03172744      16.97645533        3       0.00141477       0.00334589      -0.00508147
Al       6.95694604       8.48210219      17.02769000        3       0.00794466       0.01437960      -0.00595938
Al       9.83167435       8.50146885      16.97627921        3      -0.00168949      -0.00327456      -0.00321829
Al      12.70689416       8.51804595      16.97661774        3       0.00122244      -0.00328570      -0.00217671
Al      15.57656694       8.50844849      17.02233981        3      -0.01331562       0.00036963      -0.03037190
Al       1.30873030       1.87833864      19.20219461        2       0.00329744      -0.00089157       0.01399642
Al       4.18180011       1.85031065      19.21277527        2      -0.00803808       0.00218303       0.02639847
Al       7.05234790       1.85385097      19.20184697        2      -0.00526131       0.00290746       0.02274491
Al       9.93266494       1.84624280      19.22767738        2      -0.00241403      -0.00182130       0.00855299
Al       2.74819135       4.38064158      19.23968324        2       0.00099636      -0.00126895      -0.00179377
Al       5.60799194       4.37536894      19.27923095        2      -0.00782392       0.00024833       0.01887539
Al       8.44766432       4.35524869      19.29124267        2       0.01298454      -0.00541358      -0.00748028
Al      11.33966483       4.36109644      19.20878643        2       0.00031053       0.00019572       0.00669893
Al       4.18568093       6.85405245      19.31951044        2      -0.00106716       0.00125800       0.00485240
Al       7.06101920       6.80885841      19.39155365        2       0.00437709       0.01132177      -0.00418422
Al       9.90003588       6.83433124      19.26074172        2       0.00067711       0.00350866       0.01110243
Al      12.78268307       6.84058571      19.23897614        2      -0.00444837       0.00511456       0.00530700
Al       5.61565534       9.31758707      19.31269599        2      -0.00175768       0.00110409       0.00218670
Al       8.51568217       9.28612867      19.28652666        2       0.00010158       0.00195239       0.00972167
Al      11.33636040       9.30416594      19.23809075        2      -0.00457910       0.00167540       0.00977173
Al      14.23296571       9.33767074      19.29270472        2      -0.00147957       0.00045899       0.00274640
Al       1.46162100       0.23179861      21.47398966        1      -0.01100368       0.00435737       0.03700824
Al       4.18951275       0.25219679      22.05432562        1       0.00453233       0.00562167      -0.00621521
Al       7.04005841       0.21598712      21.53046451        1       0.00542930       0.00230418      -0.01588828
Al      10.22271722       0.18340830      22.04950410        1      -0.00867334      -0.00027449      -0.01624684
Al       2.84886171       2.75956990      21.50855383        1      -0.00941615      -0.00805001       0.00776029
Al       5.69328503       2.69421599      21.47252782        1      -0.01388650       0.01013436       0.07791691
Al       8.62430997       2.55616601      21.49408350        1      -0.02865323       0.01484702       0.00779407
Al      11.41819285       2.75752339      21.52665823        1       0.00972798      -0.01143968      -0.03551812
Al       4.29330801       5.27283622      21.70538881        1      -0.00427256      -0.00833661       0.00642411
Al       7.27947741       5.00233513      21.76798513        1      -0.04886333       0.02530554      -0.03671552
Al      10.07614729       5.17792523      21.56666540        1      -0.02725027      -0.00731790      -0.00596275
Al      12.87003901       5.19197785      21.57617278        1       0.00367617       0.00663811      -0.00369068
Al       5.71979416       7.64079270      21.71594630        1       0.00649665       0.00605908      -0.02441942
Al       8.51581336       7.54990258      22.01756339        1      -0.00861279       0.00914560      -0.01587449
Al      11.44340374       7.62920465      21.56810219        1      -0.01418987       0.01937942       0.00074929
Al      14.29267344       7.74296581      21.64481824        1      -0.00246647       0.00361561      -0.00226210
C        0.44922959       3.64789249      24.99010716        0      -0.05899917      -0.01778313      -0.01558874
C        0.39195290       2.30300102      24.61618585        0       0.10650305      -0.05765080      -0.03802538
C       -0.87443464       1.71059618      24.50216171        0       0.01140685       0.13544209       0.04099324
N       -1.24575081       0.43498027      24.08966822        0      -0.16657043       0.01823561       0.03236814
N       -2.57958218       0.39833708      24.47243190        0      -0.15510777       0.20310476       0.02081215
N       -3.12889665       1.59552478      24.74427195        0       0.18710071      -0.34521464      -0.02263246
C       -2.05960403       2.43639915      24.83275672        0       0.03509758      -0.20322010      -0.02128373
C       -1.99202153       3.79616465      25.19487744        0       0.13419005       0.13255981      -0.01051802
C       -0.73489184       4.38656720      25.25816252        0       0.01059604      -0.10784347       0.01665463
H        1.42245511       4.14171702      25.04148563        0      -0.01168828       0.00368854      -0.00222953
H        1.29281160       1.71000641      24.41606730        0      -0.07058830       0.10129909       0.01491292
H       -3.17386234      -0.38453091      24.18354599        0       0.01212670       0.00847509      -0.00591243
H       -2.90332519       4.36859891      25.36714100        0      -0.00454332      -0.00913796       0.00725535
H       -0.64991620       5.44134454      25.52057589        0       0.01283235       0.03133023      -0.01314344
