110
Lattice="11.45512985522207 0.0 0.0 5.727564927611035 9.92043345827187 0.0 0.0 0.0 31.691342951089922" Properties=species:S:1:pos:R:3:tags:I:1:forces:R:3 energy=-462.02850341796875 free_energy=-462.02850341796875 stress="0.004929864779114723 2.6775524020195007e-06 -3.3760443329811096e-07 2.6775524020195007e-06 0.0049868798814713955 -9.988434612751007e-07 -3.3760443329811096e-07 -9.988434612751007e-07 0.0047959028743207455" pbc="T T F"
Al       2.33088524       1.22636717      10.02911038        6       0.00163074       0.00028292       0.00016581
Al       5.19182968       1.22498828       9.95581264        6       0.00204576       0.00053401       0.00238745
Al       8.05463231       1.23141029       9.97403174        6       0.00311907      -0.00007039       0.00158753
Al      10.91761168       1.23011916      10.01811297        6       0.00287416      -0.00088881      -0.00047496
Al       3.77964426       3.70312426       9.99839959        6       0.00105261       0.00071392       0.00174602
Al       6.63678552       3.70416424      10.00688271        6       0.00173978       0.00049980       0.00190881
Al       9.50128272       3.71575462      10.04917220        6       0.00203175      -0.00100355      -0.00143337
Al      12.35970783       3.70903976      10.02802104        6       0.00291329      -0.00039095      -0.00106886
Al       5.20396609       6.18263348      10.01015806        6       0.00185113       0.00022422       0.00139176
Al       8.06109930       6.18935319      10.00463898        6       0.00264282      -0.00017060       0.00154216
Al      10.93135011       6.19698217      10.03458725        6       0.00208895      -0.00105460      -0.00044590
Al      13.80216351       6.18663323      10.02006168        6       0.00159362      -0.00078872      -0.00031873
Al       6.62525257       8.66835073       9.97590235        6       0.00157317       0.00057388       0.00248918
Al       9.48812301       8.67427786       9.96767867        6       0.00219661      -0.00092328       0.00256147
Al      12.35978551       8.67060887       9.98888333        6       0.00201908      -0.00038704       0.00115453
Al      15.21972827       8.66846686       9.98608282        6       0.00292127      -0.00077724       0.00012603
Al       1.04442985       2.00382348      12.40334641        5       0.00058035       0.00879989      -0.01088221
Al       3.91801075       2.01090357      12.36070742        5       0.00311125      -0.00037191       0.00295153
Al       6.78076999       2.00633462      12.36903009        5       0.00084009       0.00383547      -0.00192674
Al       9.63616123       2.01185521      12.39455099        5       0.00099679       0.00196693      -0.00240647
Al       2.48243335       4.49030673      12.37962038        5       0.00431770      -0.00009860      -0.00061288
Al       5.34395459       4.49522026      12.38228333        5       0.00423993      -0.00087536       0.00311384
Al       8.20187126       4.50193383      12.40480283        5       0.00285233      -0.00269386       0.00111629
Al      11.07246320       4.49366230      12.40766391        5      -0.00453913       0.00048389      -0.00358252
Al       3.91317235       6.97252121      12.38494263        5       0.00482238       0.00162711      -0.00255704
Al       6.77902865       6.97524477      12.38114929        5       0.00016585       0.00198146       0.00720100
Al       9.63998466       6.97810409      12.40450956        5      -0.00359543      -0.00149090      -0.01460295
Al      12.50564400       6.97249037      12.38506453        5       0.00025484       0.00257625      -0.00695827
Al       5.34898428       9.44909061      12.37974995        5      -0.00006583      -0.00447841      -0.00869550
Al       8.21264081       9.45215008      12.37776469        5       0.00406441      -0.00933271      -0.00798209
Al      11.07763310       9.45090237      12.36678861        5      -0.00036030       0.00047181      -0.01436514
Al      13.93792603       9.45385663      12.36214278        5       0.00251836      -0.00046086       0.00170041
Al       1.13684525       0.30262989      14.65577914        4       0.00092166      -0.00478093       0.01601088
Al       4.00904243       0.30916466      14.64876548        4      -0.00106070      -0.00045408       0.00453570
Al       6.86745697       0.29918978      14.65967719        4       0.00301734       0.00303368       0.00132772
Al       9.72932370       0.30688181      14.65200393        4      -0.00049617      -0.00591263       0.01409637
Al       2.57473392       2.79249809      14.65547701        4       0.00093146      -0.00104432       0.00547322
Al       5.43383114       2.78886039      14.64920123        4       0.00191261       0.00022408       0.00829864
Al       8.28896507       2.80203404      14.68174627        4       0.00083938      -0.00914035       0.00321762
Al      11.15200630       2.79168670      14.69302510        4       0.00098177      -0.00000451       0.00154065
Al       4.00313928       5.27565709      14.67652221        4       0.00169528      -0.00160061       0.00145032
Al       6.85714349       5.28228008      14.70066430        4      -0.00042000      -0.00572183      -0.00889704
Al       9.72002807       5.27039274      14.70861728        4       0.00227442       0.00119737      -0.00626305
Al      12.59313587       5.26875084      14.65844259        4       0.00199020       0.00150681       0.01365776
Al       5.43283100       7.73847250      14.68522553        4      -0.00084802       0.00529947       0.00402303
Al       8.29266926       7.74420392      14.70491467        4       0.00037997       0.00481383      -0.00752468
Al      11.16305379       7.75990593      14.66463792        4       0.00149059      -0.00512056       0.00783620
Al      14.01746907       7.74759092      14.66153661        4       0.00907247       0.00237871       0.01418677
Al       2.68036123       1.04011706      16.94448490        3      -0.00026736       0.00060817       0.00151091
Al       5.55420929       1.04530797      16.95275406        3      -0.00154648       0.00708391      -0.00882125
Al       8.41750101       1.04588411      16.96256043        3       0.00060833      -0.00023704      -0.00989070
Al      11.26511850       1.03967134      16.96449313        3       0.00256423      -0.00276652      -0.00812767
Al       4.11626952       3.52884829      16.96266643        3       0.00048972       0.00497433       0.00207315
Al       6.95834336       3.56498925      16.98613084        3       0.00244685      -0.01287644      -0.00498993
Al       9.81989719       3.54527962      17.00774529        3      -0.00000702      -0.00034731      -0.02014533
Al      12.69546173       3.53062107      16.96224504        3       0.00492777       0.00590883      -0.00796909
Al       5.54077629       6.02981990      17.02411056        3      -0.00945489      -0.00065206       0.00071806
Al       8.37511064       6.02267696      17.01493505        3       0.01598463       0.00925036       0.00726396
Al      11.27166093       6.02640309      16.97006023        3       0.00208563      -0.00053121      -0.00720465
Al      14.15143794       6.01644152      16.97686109        3      -0.00095837       0.00233593      -0.00039026
Al       6.95896018       8.47519874      17.01822533        3       0.00963342       0.01233650      -0.00111244
Al       9.85047015       8.49730942      16.97465582        3      -0.00459086      -0.00376001      -0.00833710
Al      12.72151807       8.50119881      16.98331816        3       0.00002085      -0.00048951      -0.00172864
Al      15.58125516       8.48377927      17.02074792        3      -0.01306740       0.00189053      -0.02060680
Al       1.30594878       1.84021484      19.19698889        2       0.00581993      -0.00067424       0.00957607
Al       4.20374757       1.83662526      19.20531869        2      -0.00765755       0.00124018       0.02216320
Al       7.06841749       1.84104177      19.20171863        2      -0.00131771       0.00112611       0.01724216
Al       9.93539271       1.82884752      19.24055469        2      -0.00128358      -0.00092514       0.00182351
Al       2.74374777       4.33647836      19.22877672        2       0.00242218       0.00152645      -0.00213110
Al       5.61049164       4.36764799      19.29866776        2      -0.00329541      -0.00272501       0.00638076
Al       8.46061121       4.34735819      19.29658575        2       0.00624051      -0.00168841      -0.01056034
Al      11.34627239       4.34691204      19.22390966        2      -0.00060792      -0.00005072       0.00010669
Al       4.21417647       6.79994298      19.39042607        2       0.00048782       0.00236078       0.00071093
Al       7.04762810       6.80014048      19.38133397        2       0.00515453       0.00736392      -0.00233397
Al       9.93768650       6.81824570      19.25873835        2      -0.00123990       0.00239790       0.00656308
Al      12.81249683       6.80738610      19.23296856        2      -0.00258611       0.00731738       0.00897446
Al       5.60302467       9.29482326      19.31190142        2      -0.00081098       0.00006723       0.00319042
Al       8.51610323       9.27944190      19.24964985        2      -0.00103010       0.00073837       0.00903401
Al      11.36087851       9.28887427      19.25535761        2      -0.00136470       0.00501253       0.00797147
Al      14.25466840       9.29070186      19.31546947        2      -0.00170065       0.00316042      -0.00250645
Al       1.46562947       0.17727343      21.48375210        1      -0.01229233       0.00099244       0.02603069
Al       4.25997296       0.21869178      22.04284690        1      -0.00290319       0.00495335      -0.00058450
Al       7.11496152       0.20686006      21.53047464        1       0.00666563       0.00174460      -0.00621267
Al      10.21805340       0.14028440      22.06020618        1      -0.00335112       0.00533756      -0.01306841
Al       2.86984303       2.66391595      21.49354888        1      -0.01256153      -0.00031590       0.00140657
Al       5.74404504       2.68597303      21.48618702        1      -0.01010438       0.00883854       0.04594272
Al       8.63498394       2.57772508      21.50061609        1      -0.01599511       0.00958075       0.00132932
Al      11.42310035       2.71613190      21.49566444        1       0.01075928      -0.00974893      -0.02544426
Al       4.23071032       5.08418780      21.96891189        1      -0.00437148       0.00154169       0.00087677
Al       7.32620656       5.04465901      21.79224625        1      -0.02540462       0.01172126      -0.02779325
Al      10.11845800       5.16213211      21.62089811        1      -0.01733837      -0.00412111      -0.00803494
Al      12.89858025       5.15188208      21.56824448        1       0.00384306       0.00124551      -0.00911676
Al       5.74192453       7.56328205      22.02029348        1      -0.00443572       0.00687836      -0.00909572
Al       8.65068623       7.59986832      21.62248907        1      -0.00858594      -0.00076707       0.00231334
Al      11.57996030       7.60582534      21.58993708        1      -0.02507717       0.01621293      -0.00136668
Al      14.38677399       7.67062599      21.69042190        1      -0.00263015       0.00746744      -0.00133420
C        0.28617118       3.79875335      24.87843723        0      -0.04664967       0.00327519      -0.01177844
C        0.28091335       2.44640429      24.52783591        0       0.07344486      -0.03896280      -0.02348883
C       -0.95836831       1.78726461      24.48892738        0       0.02485484       0.09210239       0.02346588
N       -1.28406712       0.49504718      24.10042581        0      -0.11604404       0.01136426       0.01467127
N       -2.59812060       0.39403721      24.53555577        0      -0.12229135       0.12686995       0.01452098
N       -3.18895052       1.56459966      24.82938612        0       0.12467153      -0.23125188      -0.01251586
C       -2.16077452       2.45708690      24.87042710        0       0.02913615      -0.14006849      -0.01098659
C       -2.14401831       3.82422095      25.21762890        0       0.07693417       0.07763008      -0.01111926
C       -0.91920711       4.48034423      25.20031559        0       0.02802230      -0.08239570       0.01781555
H        1.23329723       4.34410337      24.86631408        0      -0.00773797       0.00356120       0.00178237
H        1.20286801       1.89915383      24.30331772        0      -0.04490238       0.06858815       0.00852793
H       -3.16824354      -0.39795124      24.22450416        0       0.00659483       0.00164481      -0.00256162
H       -3.07297020       4.34640022      25.44742387        0       0.00436443      -0.00777197       0.00506189
H       -0.87372919       5.54460188      25.43420252        0       0.01010851       0.02188513      -0.00549673
