110
Lattice="11.45512985522207 0.0 0.0 5.727564927611035 9.92043345827187 0.0 0.0 0.0 31.691342951089922" Properties=species:S:1:pos:R:3:tags:I:1:forces:R:3 energy=-461.7232971191406 free_energy=-461.7232971191406 stress="0.004580128937959671 3.238208591938019e-06 -3.725290298461914e-08 3.238208591938019e-06 0.00460154190659523 -1.4975666999816895e-06 -3.725290298461914e-08 -1.4975666999816895e-06 0.0043422989547252655" pbc="T T F"
Al       2.28152170       1.10143059      10.02942145        6       0.00036432       0.00166400      -0.00091637
Al       5.10409482       1.10672342       9.98147041        6       0.00769094      -0.00051758      -0.00657146
Al       7.97217694       1.14165494       9.93545801        6       0.00408234       0.00065132       0.00179085
Al      10.86024449       1.13252032      10.02163497        6       0.00157089       0.00125311      -0.00122060
Al       3.67972714       3.59886273      10.02090356        6       0.00471201       0.00112261      -0.00737922
Al       6.51824726       3.60237278       9.98419188        6       0.00978979      -0.00061636      -0.00445849
Al       9.39783562       3.61110594       9.98495145        6       0.00642900      -0.00226807      -0.00118870
Al      12.28826301       3.59743307      10.02055115        6       0.00215733       0.00009182      -0.00250341
Al       5.09609322       6.10142057       9.98883611        6       0.00738056      -0.00301829      -0.00575742
Al       7.95290140       6.07715329       9.95170036        6       0.00445629       0.00052372       0.00279792
Al      10.84459920       6.06247233      10.04224222        6       0.00241450       0.00166087      -0.00028275
Al      13.70989444       6.09236014      10.01772848        6       0.00275451      -0.00001856      -0.00410399
Al       6.53554789       8.57839555       9.94891735        6       0.00614984      -0.00294361       0.00064202
Al       9.40134197       8.52139774      10.05564535        6       0.00499410       0.00185342      -0.00500551
Al      12.26586679       8.57202080       9.93968143        6       0.00367801      -0.00138097       0.00102431
Al      15.13101752       8.59498248       9.94398404        6       0.00319036      -0.00139770       0.00092949
Al       1.02249078       1.97506649      12.39527265        5      -0.00159295       0.01225336      -0.01477047
Al       3.89497060       1.98265919      12.36710715        5      -0.00006274      -0.00057504       0.00623011
Al       6.75127056       1.97104671      12.35170152        5       0.00572714       0.01150795      -0.01147784
Al       9.60412158       1.99060821      12.36782791        5       0.00637179       0.00197665      -0.00802279
Al       2.45327718       4.46395437      12.37778098        5       0.00436581       0.00010766      -0.00013592
Al       5.31575302       4.47220693      12.35821064        5       0.00205802       0.00101223       0.00844983
Al       8.17026601       4.46627733      12.35649863        5       0.00249402       0.00230596       0.00543892
Al      11.04074249       4.46516090      12.38908801        5      -0.00499898      -0.00000179       0.00367371
Al       3.88268462       6.95305368      12.35676454        5       0.00373637       0.00308384       0.00422752
Al       6.74633621       6.94666723      12.35501060        5       0.00215812       0.00249192       0.00362211
Al       9.60004250       6.94148136      12.40437080        5       0.00194406      -0.00340201      -0.00420727
Al      12.48131453       6.95055924      12.36812874        5      -0.00682691       0.00370385      -0.00487323
Al       5.32322044       9.42633702      12.36249299        5      -0.00429206      -0.00550771      -0.00421955
Al       8.17283812       9.42938301      12.39973646        5       0.01529727      -0.02281471      -0.01282674
Al      11.05195878       9.42268047      12.36268064        5      -0.00163551      -0.00932190      -0.01634589
Al      13.91100973       9.42995742      12.33395649        5       0.00572692      -0.00116409      -0.00399925
Al       1.11771306       0.30053968      14.66494503        4       0.00064836      -0.00482471       0.02007853
Al       4.00228593       0.29901160      14.65773816        4      -0.00516153       0.00059512      -0.00039684
Al       6.85268701       0.29048999      14.63352243        4       0.00438452       0.00754242       0.00734706
Al       9.70479945       0.31330033      14.63144935        4       0.00675074      -0.01188694       0.02033272
Al       2.56735124       2.78698786      14.65477759        4      -0.00058650      -0.00236391       0.00569866
Al       5.42668083       2.78429856      14.63369667        4       0.00068428       0.00197747       0.01440747
Al       8.27401268       2.79983559      14.64838192        4       0.00539753      -0.00668339       0.01183273
Al      11.14376007       2.79177165      14.67095486        4      -0.00490478      -0.00159275       0.00852380
Al       3.99663282       5.27338908      14.65993275        4       0.00020118       0.00033192       0.00204988
Al       6.85099422       5.27152076      14.67159696        4      -0.00328117      -0.00294875      -0.02002170
Al       9.69980665       5.26848677      14.69543507        4       0.01006801      -0.00797708      -0.01558090
Al      12.57676789       5.26741051      14.63565426        4       0.00052218       0.00164224       0.02905169
Al       5.41819387       7.74184721      14.65961139        4      -0.00308553       0.00468359       0.00737422
Al       8.26748621       7.73378555      14.69954586        4       0.00335395       0.01045722      -0.01050919
Al      11.14505591       7.75070313      14.65216593        4       0.00113731      -0.00327404       0.00656099
Al      13.99749423       7.74747047      14.63030552        4       0.01449592       0.00251655       0.02376633
Al       2.68429428       1.06355162      16.94805183        3      -0.00279281       0.00414075       0.00167147
Al       5.55515138       1.08190539      16.94281891        3       0.00048883       0.00857314      -0.01396596
Al       8.42068389       1.08737297      16.94151226        3      -0.00095430       0.00503254      -0.01750022
Al      11.27100278       1.08519187      16.96015946        3       0.00390291      -0.00742809      -0.01761837
Al       4.11706651       3.55653982      16.95155124        3       0.00078478       0.00935753      -0.00014084
Al       6.97485669       3.59372576      16.96086214        3      -0.00399454      -0.01544169      -0.00392008
Al       9.82619330       3.57834909      17.00410836        3      -0.00356070      -0.00047327      -0.03987451
Al      12.70134089       3.56724209      16.94412238        3       0.00779730       0.00961041      -0.01718775
Al       5.55137313       6.05361207      16.98350412        3      -0.03209393       0.00594494       0.00436809
Al       8.37065353       6.04559176      17.00007516        3       0.03096237       0.01614272       0.01375884
Al      11.26890388       6.06376964      16.95725173        3      -0.00154894       0.00139934      -0.01284996
Al      14.13817138       6.05955111      16.95124775        3       0.00528727       0.00175489      -0.00843859
Al       6.96462429       8.50604597      17.01618332        3       0.00798876       0.01598785      -0.00812638
Al       9.84034349       8.52594702      16.95954648        3       0.00049840      -0.00157017       0.00107130
Al      12.71811049       8.54261086      16.95680052        3       0.00145530      -0.00274450      -0.00744233
Al      15.58997158       8.52778084      16.99153224        3      -0.01403664       0.00169243      -0.03269633
Al       1.33223417       1.92439654      19.19132637        2       0.00178338      -0.00115205       0.01329114
Al       4.20127158       1.88011411      19.20424046        2      -0.00844187       0.00186527       0.03258238
Al       7.07916815       1.89670828      19.19097291        2      -0.00327272       0.00104242       0.01761354
Al       9.94967169       1.87937158      19.22993813        2      -0.00443997       0.00082691       0.00722330
Al       2.76662644       4.41633078      19.21900363        2       0.00023453      -0.00128173       0.00620296
Al       5.62352448       4.41341500      19.26544160        2      -0.00495382       0.00212609       0.01386404
Al       8.47051833       4.40416013      19.30131327        2       0.00796745      -0.00804054      -0.00889684
Al      11.36373211       4.40266593      19.18743852        2      -0.00211008      -0.00081421       0.01154965
Al       4.20257683       6.88660155      19.29033635        2      -0.00667916       0.00113521       0.00293412
Al       7.06415776       6.84891944      19.36743377        2       0.01494206       0.00880519      -0.00124587
Al       9.92652726       6.87700949      19.24874520        2      -0.00260172       0.00235512       0.01091898
Al      12.80039927       6.87298450      19.21388215        2      -0.00567773       0.00795700       0.01018092
Al       5.61843015       9.35644342      19.28862548        2       0.00028588       0.00396244       0.00085380
Al       8.54025278       9.31386037      19.27498527        2      -0.00321078       0.00393139       0.00536765
Al      11.36100905       9.34117710      19.22654699        2      -0.00689500       0.00180881       0.00890873
Al      14.24456547       9.36855465      19.25335593        2      -0.00074472       0.00150808       0.00390073
Al       1.49047564       0.29133555      21.43745465        1      -0.01247105       0.00183572       0.03606262
Al       4.22058574       0.30498190      22.03462871        1       0.00430686       0.00551792      -0.00445816
Al       7.07953216       0.26885564      21.51175837        1       0.00512636       0.00002217      -0.01466246
Al      10.25234773       0.23468526      21.98346752        1      -0.00612133      -0.00070554      -0.01256013
Al       2.88560051       2.79493887      21.49122721        1      -0.01823273      -0.00546023       0.00966909
Al       5.72833361       2.74324466      21.44496148        1      -0.01528517       0.00349547       0.09214883
Al       8.65206048       2.61998353      21.50724647        1      -0.02798881       0.01193423       0.00674241
Al      11.44727443       2.82476604      21.51848103        1       0.00352638      -0.01007052      -0.03050555
Al       4.29617972       5.29346374      21.67404329        1      -0.00148813      -0.01067012       0.00191168
Al       7.29668425       5.06918624      21.79131529        1      -0.04856301       0.01516411      -0.03868782
Al      10.08717519       5.24133753      21.54541648        1      -0.02374785      -0.00659197      -0.00435838
Al      12.88549760       5.22813266      21.56478322        1       0.00477573       0.01016946      -0.00413995
Al       5.70385597       7.69145174      21.65424183        1       0.00802104      -0.00315162      -0.02474441
Al       8.46937022       7.63884071      22.01860333        1       0.00170307       0.00724669      -0.00126565
Al      11.45737333       7.67540056      21.56885919        1      -0.01072454       0.01878374       0.00053738
Al      14.29598071       7.77638231      21.61001334        1       0.00087444       0.00440738      -0.00250973
C        0.69257918       3.51623707      25.07247053        0      -0.04619680       0.03751527      -0.00089857
C        0.57878591       2.19594351      24.64058080        0       0.04459368      -0.07101228      -0.04482413
C       -0.71387043       1.66984181      24.48698061        0       0.04860978       0.10267249       0.03251681
N       -1.13628618       0.42542509      24.03027206        0      -0.14146158       0.00592944       0.02814876
N       -2.47052701       0.43248648      24.40994433        0      -0.14159894       0.11733636       0.01097027
N       -2.97467079       1.64213754      24.70564277        0       0.16259821      -0.28382796      -0.00840123
C       -1.86951572       2.43221289      24.83519581        0       0.01984533      -0.16021992      -0.02649669
C       -1.74202726       3.76797872      25.26019416        0       0.11321962       0.16173668       0.00214703
C       -0.46041073       4.29508281      25.36577258        0       0.00587889      -0.13386734      -0.00043000
H        1.68673587       3.96494809      25.15280097        0      -0.03941008      -0.00636965      -0.00461154
H        1.45562267       1.57773861      24.41884829        0      -0.04714872       0.06141108       0.00229119
H       -3.09721915      -0.32518706      24.11912930        0       0.02422506       0.01596955      -0.00270288
H       -2.63051932       4.37229542      25.44693545        0       0.01540303      -0.01345677       0.00815776
H       -0.32675592       5.32533206      25.69187279        0       0.00845335       0.06573897      -0.01047412
