110
Lattice="11.45512985522207 0.0 0.0 5.727564927611035 9.92043345827187 0.0 0.0 0.0 31.691342951089922" Properties=species:S:1:pos:R:3:tags:I:1:forces:R:3 energy=-461.95782470703125 free_energy=-461.95782470703125 stress="0.0034812716767191887 1.8570572137832642e-06 -5.182810127735138e-07 1.8570572137832642e-06 0.0035534638445824385 6.803311407566071e-07 -5.182810127735138e-07 6.803311407566071e-07 0.003535281401127577" pbc="T T F"
Al       2.24267547       0.67766267      10.04684652        6       0.00065907      -0.00046783       0.00149795
Al       5.10745010       0.67901423      10.03369075        6       0.00035950      -0.00037768       0.00207237
Al       7.97376482       0.67001201      10.04329360        6       0.00038420      -0.00050192       0.00137905
Al      10.83254011       0.66602565      10.05516169        6       0.00078626      -0.00032156       0.00099695
Al       3.67856298       3.15735379      10.04783607        6       0.00044439      -0.00058886       0.00046253
Al       6.54541762       3.15172119      10.05351085        6       0.00036892      -0.00043589       0.00014623
Al       9.40314163       3.14844314      10.04598585        6       0.00074486      -0.00028392       0.00063308
Al      12.26695971       3.15066716      10.04537699        6       0.00065900      -0.00028985       0.00072151
Al       5.11845985       5.63156167      10.05179406        6       0.00046376      -0.00053461      -0.00034453
Al       7.98124841       5.63447259      10.04986118        6       0.00041025      -0.00039326       0.00090396
Al      10.83759309       5.63127189      10.03332178        6       0.00053785      -0.00008627       0.00179679
Al      13.70590553       5.63253616      10.04385502        6       0.00028731      -0.00042736       0.00044381
Al       6.54953260       8.11216431      10.05049652        6       0.00037205      -0.00027736       0.00138237
Al       9.40515739       8.11894400      10.02726376        6       0.00057664      -0.00017351       0.00240474
Al      12.26763207       8.11581125      10.02460856        6       0.00045721      -0.00036117       0.00223285
Al      15.13770004       8.10856131      10.04654105        6       0.00048575      -0.00077236       0.00021349
Al       0.87616689       1.47999159      12.40743478        5      -0.00041297       0.00053323       0.00333171
Al       3.73635635       1.47981779      12.41004603        5       0.00165140      -0.00122107       0.00053567
Al       6.59562614       1.48026351      12.40574225        5       0.00211632      -0.00219104      -0.00012711
Al       9.46375417       1.48274736      12.41020690        5      -0.00116032      -0.00207980      -0.01056620
Al       2.30765535       3.95846247      12.40401258        5      -0.00078096      -0.00034880      -0.00322030
Al       5.16813284       3.95803996      12.40920142        5       0.00372599      -0.00084555      -0.00241694
Al       8.03242639       3.96156843      12.40566797        5      -0.00091020      -0.00071597      -0.00036568
Al      10.89552708       3.96308371      12.39626651        5       0.00065557      -0.00085020       0.00114154
Al       3.74006673       6.44037549      12.40148417        5       0.00027010      -0.00051128      -0.00224157
Al       6.60499572       6.44150192      12.41121336        5       0.00162416      -0.00147648      -0.00974257
Al       9.46402599       6.44499639      12.39896818        5       0.00050382      -0.00001096      -0.00206063
Al      12.32645250       6.44276094      12.38842139        5       0.00005303       0.00091210       0.00436292
Al       5.17320823       8.92433945      12.40980712        5      -0.00016203      -0.00389435      -0.00352023
Al       8.03535290       8.92496352      12.40731122        5       0.00102870      -0.00313113       0.00192976
Al      10.89046993       8.92418708      12.39248233        5       0.00282063      -0.00118238       0.00588049
Al      13.75946129       8.92137595      12.39384526        5      -0.00146519       0.00000168       0.00442514
Al       0.90135506      -0.19009885      14.69740204        4       0.00053870      -0.00090409      -0.00495264
Al       3.76093836      -0.18599164      14.69655716        4       0.00141943      -0.00273992      -0.01091715
Al       6.62548191      -0.19172929      14.68451283        4      -0.00317845      -0.00156394      -0.02335779
Al       9.48914667      -0.18874057      14.67612549        4       0.00038938      -0.00061182       0.00238303
Al       2.33496433       2.28998935      14.69458830        4      -0.00036822      -0.00115172      -0.00129193
Al       5.19637757       2.28950941      14.69680374        4       0.00045232      -0.00091933      -0.00237308
Al       8.05356291       2.29290762      14.68080920        4       0.00001405       0.00007181       0.00208562
Al      10.92049919       2.29178637      14.67620724        4       0.00064044      -0.00002821       0.00318348
Al       3.77125829       4.76478868      14.67917336        4      -0.00044826      -0.00006965       0.00306062
Al       6.62559928       4.76957473      14.69214982        4       0.00150041      -0.00236913      -0.00608621
Al       9.48800489       4.77509539      14.67339360        4       0.00051817      -0.00071214       0.00079183
Al      12.35763042       4.76765778      14.66445160        4      -0.00008001      -0.00007788       0.00318583
Al       5.20348985       7.24388993      14.67768613        4      -0.00167749       0.00055044       0.00430945
Al       8.05640428       7.25252978      14.69186159        4       0.00126101      -0.00025877      -0.00479039
Al      10.91969532       7.25386375      14.67192923        4       0.00062937      -0.00019173       0.00005308
Al      13.79217737       7.24728838      14.66799407        4      -0.00009499       0.00009920       0.00266969
Al       2.34820617       0.60878631      16.99734855        3       0.00036024      -0.00000391       0.00296723
Al       5.21513806       0.61435766      16.98576898        3      -0.00320040       0.00264903      -0.00249155
Al       8.06575122       0.62121921      16.95920004        3       0.00129772       0.00039561       0.00341464
Al      10.93986600       0.61156602      16.96963944        3       0.00027338       0.00026540       0.00225426
Al       3.79090253       3.08138390      16.99031595        3       0.00056852       0.00094478       0.00178237
Al       6.64388112       3.09592984      16.99495311        3      -0.00023164      -0.00013796       0.00322466
Al       9.50109760       3.09853962      16.96035369        3       0.00024215      -0.00026551       0.00033386
Al      12.37107433       3.07811609      16.96890926        3       0.00096293       0.00069932       0.00138119
Al       5.21957054       5.55403349      16.98101960        3      -0.00139383      -0.00144920       0.00119632
Al       8.07527196       5.57213764      16.97290146        3       0.00028482      -0.00097735       0.00233755
Al      10.93918529       5.57195114      16.94826613        3       0.00017973       0.00007826       0.00242708
Al      13.80701424       5.56407641      16.94863271        3       0.00091333      -0.00052536       0.00331043
Al       6.63791269       8.04858761      16.98817883        3       0.00295512       0.00248547      -0.00497782
Al       9.50030840       8.05940878      16.97447561        3       0.00070114      -0.00055082       0.00198951
Al      12.36867281       8.05878729      16.95298081        3       0.00114564      -0.00211293       0.00229069
Al      15.24539652       8.05588117      16.95939242        3      -0.00157367      -0.00133193       0.00095581
Al       0.91053211       1.42568723      19.26511049        2       0.00146020      -0.00071810      -0.00284160
Al       3.80346568       1.43776169      19.25768546        2      -0.00023205       0.00109455       0.00279813
Al       6.64750720       1.44460335      19.25229481        2       0.00061599      -0.00032957       0.00385206
Al       9.50826720       1.45411753      19.19234985        2      -0.00104685      -0.00085311       0.00347641
Al       2.36243026       3.92080609      19.20624920        2      -0.00073513      -0.00145740      -0.00146821
Al       5.22253232       3.89069759      19.33352657        2      -0.00039285      -0.00109917      -0.00942846
Al       8.09090002       3.92840109      19.25433369        2      -0.00169035      -0.00146027      -0.00160890
Al      10.94851498       3.92851156      19.19844650        2       0.00001394       0.00160821      -0.00059061
Al       3.78493158       6.40055093      19.19462215        2      -0.00038983      -0.00077839      -0.00430367
Al       6.64893309       6.38719599      19.21762561        2       0.00171401       0.00183531      -0.00109587
Al       9.53429913       6.40289999      19.20985898        2      -0.00013333      -0.00073707      -0.00527068
Al      12.37978637       6.40473425      19.19901136        2       0.00043384      -0.00012417      -0.00250595
Al       5.21669373       8.89617424      19.24538721        2       0.00077925      -0.00107391      -0.00357585
Al       8.07880071       8.87266020      19.26262390        2       0.00057627       0.00085207      -0.00423456
Al      10.95299622       8.88246833      19.21874257        2      -0.00066652       0.00056062       0.00173782
Al      13.81095369       8.89199220      19.19351391        2       0.00005336      -0.00089328       0.00167054
Al       0.82835460      -0.19209673      21.96442930        1      -0.00148181      -0.00134277       0.00476375
Al       3.77304212      -0.20143199      21.57801161        1      -0.00127972       0.00085128      -0.00259307
Al       6.63372867      -0.19096978      21.53228600        1       0.00020298      -0.00039829       0.00083271
Al       9.46100080      -0.18858802      21.55459343        1       0.00232754       0.00082520      -0.00080979
Al       2.30530951       2.28898449      21.56171229        1      -0.00085814       0.00150301       0.00000455
Al       5.14174551       2.29462501      21.88846764        1      -0.00026574      -0.00010729       0.00220893
Al       8.04559414       2.30615974      21.58583603        1      -0.00173611       0.00259619       0.00408340
Al      10.91330472       2.31204781      21.53534872        1       0.00190436       0.00040261      -0.00214593
Al       3.73180785       4.78600324      21.53993816        1       0.00263796       0.00115246      -0.00124346
Al       6.63072644       4.80473404      21.57788564        1       0.00108706      -0.00007051       0.00702406
Al       9.53653719       4.77976203      21.59061016        1       0.00210116       0.00239018       0.00026848
Al      12.37901152       4.75649930      21.49597749        1      -0.00024263       0.00282824       0.00465857
Al       5.17321836       7.24569503      21.55049202        1       0.00335025      -0.00142062      -0.00199074
Al       8.08774831       7.24315277      21.58889931        1       0.00063895       0.00198418      -0.00070591
Al      10.96503820       7.22790791      21.52154221        1       0.00452760      -0.00208416       0.00225005
Al      13.78709357       7.23994550      21.47557505        1       0.00216223      -0.00165860       0.00072512
C        2.47969904       6.80948877      24.80595117        0       0.01574771      -0.02297506      -0.00396730
C        2.33591547       5.43193421      24.86057312        0      -0.01478964       0.00617013       0.00953715
C        1.01860180       4.92042006      24.96357821        0       0.07293501      -0.02566839       0.00330305
N        0.58003677       3.63408972      24.94101883        0       0.01472464      -0.02428835       0.00074394
N       -0.75017784       3.76805081      24.96843143        0      -0.06222719      -0.06229426      -0.00048596
N       -1.24701815       5.02022743      24.92685442        0       0.01723277      -0.00303658      -0.00335939
C       -0.11833902       5.77972192      24.94657244        0      -0.06737670       0.08209761       0.00274633
C        0.05023198       7.18281694      24.88442652        0       0.02336489       0.02571095      -0.00006995
C        1.34625192       7.67742568      24.82560079        0      -0.03176995       0.01947214       0.01190235
H        3.47580370       7.24411378      24.69478330        0       0.01101646       0.01004667       0.00060819
H        3.18808085       4.75417658      24.78339792        0      -0.00116930      -0.00740737       0.00068167
H       -1.35534376       2.96690420      24.77174094        0       0.00313251       0.00541965      -0.00477265
H       -0.81951929       7.83929694      24.85862693        0      -0.00777466       0.01800058      -0.00140458
H        1.51992817       8.75348987      24.76379337        0      -0.01103998       0.00888944      -0.00404256
