110
Lattice="11.45512985522207 0.0 0.0 5.727564927611035 9.92043345827187 0.0 0.0 0.0 31.691342951089922" Properties=species:S:1:pos:R:3:tags:I:1:forces:R:3 energy=-461.92169189453125 free_energy=-461.92169189453125 stress="0.004486973397433758 2.50060111284256e-06 -1.1408701539039612e-07 2.50060111284256e-06 0.004526224453002214 3.310851752758026e-07 -1.1408701539039612e-07 3.310851752758026e-07 0.0045012496411800385" pbc="T T F"
Al       2.89762424       0.89712506       9.99555860        6      -0.00619767       0.00465870      -0.00279604
Al       5.75152627       0.89961518      10.01252231        6      -0.00305935       0.00286680      -0.00550654
Al       8.60515333       0.90822704      10.00008000        6      -0.00158012       0.00371175      -0.00369741
Al      11.47450025       0.93140237       9.98630755        6      -0.00236935       0.00121145      -0.00118879
Al       4.32789091       3.37746544       9.99853373        6      -0.00494944       0.00354272      -0.00358967
Al       7.18274775       3.38926866       9.99421309        6      -0.00275643       0.00239924      -0.00149239
Al      10.04609003       3.40322814       9.98794187        6      -0.00303625       0.00169269      -0.00156627
Al      12.91293487       3.39869647      10.00170033        6      -0.00222346       0.00169974      -0.00221813
Al       5.71070036       5.86753115      10.05518305        6      -0.00011116       0.00360901      -0.00885822
Al       8.57445197       5.86953216      10.03035224        6      -0.00139327       0.00469622      -0.00638523
Al      11.44712126       5.87490756      10.00719112        6      -0.00166292       0.00247474      -0.00320212
Al      14.32354896       5.86732548      10.02304374        6      -0.00269199       0.00253760      -0.00565949
Al       7.15118235       8.35732090      10.03177300        6      -0.00174281       0.00223184      -0.00183380
Al      10.02434720       8.35623949      10.00232976        6      -0.00389167      -0.00025843      -0.00498792
Al      12.89426920       8.34298668      10.01029836        6      -0.00369681       0.00305417      -0.00897771
Al      15.75484914       8.35755622      10.01707571        6      -0.00201798       0.00271879      -0.00352166
Al       1.38179015       1.76755183      12.36095546        5      -0.00420037       0.02098961      -0.00783663
Al       4.23963242       1.78491137      12.36741045        5       0.00013617      -0.00404945       0.00055303
Al       7.10163649       1.76532756      12.36956967        5       0.00284493       0.03189074      -0.03130662
Al       9.96920525       1.77577178      12.35914285        5      -0.00282574       0.02299902      -0.02748382
Al       2.81404063       4.25980762      12.36920960        5      -0.00112563      -0.00296228       0.00377123
Al       5.66770906       4.25704792      12.37944689        5       0.00367028      -0.00424457       0.00432955
Al       8.52830007       4.26129669      12.36577090        5       0.00754112      -0.00152459      -0.00069619
Al      11.40772201       4.26351580      12.35063788        5      -0.01036253      -0.00560467       0.00792392
Al       4.23423471       6.73600446      12.39603686        5       0.00242503       0.01221047      -0.01185612
Al       7.09188364       6.73755142      12.39803051        5       0.00810974       0.01007917      -0.00338516
Al       9.95552044       6.74086439      12.37634335        5      -0.00391190       0.00251748      -0.01273803
Al      12.82977451       6.73797726      12.36465243        5      -0.01029087       0.00688995      -0.00876179
Al       5.66883348       9.22507139      12.38739091        5      -0.00619596      -0.00648223      -0.03094532
Al       8.52272811       9.22776081      12.39219680        5       0.01225690      -0.02020093      -0.02377648
Al      11.38320410       9.22046054      12.37465125        5      -0.00037571      -0.00841636      -0.04606998
Al      14.25460414       9.21588825      12.36394949        5       0.00636033       0.00115544      -0.01115391
Al       1.31519748       0.15791417      14.65335623        4      -0.00235165      -0.00587675       0.02835260
Al       4.19274681       0.15216512      14.65937915        4      -0.01202262       0.00650809       0.00619404
Al       7.03040349       0.14241252      14.62505318        4       0.01639713       0.01830201       0.04007222
Al       9.89550374       0.16989243      14.62567045        4       0.00416616      -0.01277157       0.04369781
Al       2.75271353       2.63670799      14.64893985        4      -0.00057288       0.00217155       0.00379830
Al       5.61907563       2.62928566      14.65451863        4      -0.00347605       0.00478264       0.01398429
Al       8.47172767       2.65845623      14.63175413        4       0.00374034      -0.01543569       0.02989992
Al      11.34682499       2.64141591      14.63861964        4      -0.00996096       0.00096688       0.00617580
Al       4.18124067       5.12423428      14.67149054        4      -0.00169199      -0.00787028       0.00876693
Al       7.03898013       5.11281467      14.67284005        4      -0.00152157       0.00325880       0.00176247
Al       9.90332372       5.12500784      14.65683400        4       0.00048035      -0.00337465       0.00242911
Al      12.76888343       5.12042930      14.63015701        4       0.00180974      -0.00055987       0.02511441
Al       5.61687700       7.59991264      14.67725231        4      -0.00781520       0.00598627       0.00462160
Al       8.47044632       7.59465895      14.69629140        4      -0.00181187       0.01240507      -0.02190846
Al      11.32177193       7.60592023      14.63853033        4       0.00861696      -0.00794854       0.02500357
Al      14.18165951       7.59845938      14.65178641        4       0.02309792       0.00523575       0.02507295
Al       2.67060461       1.01334529      16.95166661        3      -0.00237356       0.00137285       0.00191507
Al       5.53347613       1.01941820      16.97959282        3      -0.00040578      -0.00024036      -0.03211319
Al       8.38475689       1.03362806      16.93381742        3       0.00735814      -0.00392454      -0.01569221
Al      11.25299852       1.02876136      16.95277587        3       0.00459956      -0.01215614      -0.03192588
Al       4.09879584       3.47907439      16.97364489        3       0.00360700       0.02626814      -0.01010982
Al       6.95566958       3.52243332      16.97623176        3       0.00450792      -0.00944283      -0.01734739
Al       9.81868265       3.51550972      16.97341053        3      -0.00519204       0.00358893      -0.04262980
Al      12.68581077       3.50416026      16.94206737        3       0.01046061       0.01669171      -0.01926738
Al       5.53471361       5.99579947      16.98641843        3      -0.01099567      -0.01213378       0.00163789
Al       8.37891332       5.99217337      16.97622654        3       0.01733782       0.00305671       0.01193382
Al      11.25772571       6.00317245      16.95185881        3      -0.00195426      -0.00094467      -0.01673526
Al      14.12449289       5.98697083      16.96269178        3       0.00657602       0.00372398      -0.00765194
Al       6.95869912       8.43458713      17.01517056        3       0.01998390       0.03749735      -0.02513716
Al       9.82960173       8.48231768      16.98684081        3       0.00151572      -0.01018455      -0.01288244
Al      12.68502108       8.47354309      16.95143352        3       0.00367356       0.00075521      -0.00322787
Al      15.57784733       8.45758881      16.98595931        3      -0.03278082       0.00776735      -0.04746373
Al       1.19619968       1.90866976      19.18443741        2       0.01035925      -0.00294629       0.02165148
Al       4.06765749       1.85807855      19.24588546        2      -0.00752960       0.00580672       0.02784529
Al       6.93208033       1.87135838      19.20688122        2       0.00430941       0.01229462       0.02227755
Al       9.80376433       1.88826786      19.20106005        2      -0.00029231      -0.00264262       0.00586421
Al       2.63349095       4.39760833      19.24110602        2       0.01357985      -0.01733454      -0.00521508
Al       5.49838377       4.38412588      19.26068418        2      -0.00703297       0.00924029       0.01311922
Al       8.33636060       4.41242985      19.26278405        2       0.02766871      -0.03011665      -0.00797703
Al      11.22184139       4.38418911      19.19120641        2       0.00360238      -0.00401491       0.02335755
Al       4.05645936       6.86657421      19.30321715        2       0.00469831      -0.00039263       0.01962770
Al       6.88509817       6.83524644      19.35658591        2       0.02558335       0.02642827      -0.00735954
Al       9.78986824       6.86217767      19.24143218        2      -0.00109772       0.00041279       0.01752751
Al      12.65239347       6.85446486      19.20633663        2       0.00155209       0.00677662       0.00949893
Al       5.47869120       9.32727896      19.23621531        2       0.00783223      -0.00130107       0.02062546
Al       8.39043264       9.33663926      19.27223109        2      -0.00927003      -0.00340640       0.00257044
Al      11.22258049       9.34311081      19.29951710        2      -0.00444759      -0.00658027      -0.00550836
Al      14.07522312       9.34804717      19.21250874        2       0.00625480      -0.00314842       0.01450708
Al       1.15201512       0.29508272      21.45844813        1      -0.00907827       0.00092272       0.08067854
Al       3.93626870       0.32012324      21.94803645        1       0.02710031      -0.00766100      -0.03582815
Al       6.85732644       0.28349997      21.57440605        1       0.01345203      -0.00642354      -0.02292270
Al       9.76336896       0.25981633      21.60891444        1       0.00065732       0.01642791      -0.01282388
Al       2.64362712       2.79879917      21.51044492        1      -0.01690629      -0.01787361       0.02378071
Al       5.51694903       2.75812536      21.46685352        1      -0.00848467       0.00629926       0.14883031
Al       8.42097936       2.68936193      21.46439076        1      -0.05163373       0.03868756       0.01871163
Al      11.21246867       2.78643560      21.53067875        1       0.01975558      -0.02940173      -0.04833059
Al       4.08097432       5.27904845      21.67114116        1      -0.00547309      -0.01245150       0.00895648
Al       7.06967967       5.14424576      21.68549065        1      -0.08621671       0.03550284      -0.04200745
Al       9.86514886       5.24848374      21.55269158        1      -0.04720644      -0.02939938       0.00221867
Al      12.63179725       5.23035303      21.52476370        1       0.02824669       0.01210013       0.00290204
Al       5.43265476       7.72059594      21.89540877        1       0.01446825       0.00990298      -0.02810736
Al       8.33593420       7.70738823      21.60053558        1      -0.01104165       0.00297901      -0.00748015
Al      11.16206154       7.71327657      21.57707177        1       0.02208696       0.01770469      -0.00432603
Al      14.01082677       7.74562008      21.60212075        1       0.01018299      -0.00423488      -0.00351019
C       -0.39916055       4.44371151      24.98170147        0      -0.06603956      -0.10028015       0.00546297
C       -0.40066402       3.06834425      24.77858221        0       0.16015147      -0.10978685      -0.03214008
C       -1.64834830       2.40430049      24.79336772        0      -0.09918649       0.21340793       0.07024952
N       -1.95623095       1.10509404      24.56188175        0      -0.27186286      -0.04236160       0.07505687
N       -3.28930553       1.06799495      24.78453883        0      -0.15370274       0.38441265       0.01142273
N       -3.90800775       2.26854628      24.98142660        0       0.34107655      -0.62126440      -0.01298341
C       -2.86716933       3.13286968      25.04599939        0       0.04966288      -0.30969992      -0.06769921
C       -2.84712653       4.52064964      25.25178327        0       0.24586178       0.27227393      -0.00279198
C       -1.61176258       5.15706363      25.21570196        0      -0.09149421      -0.12533851       0.00777954
H        0.54112480       4.99756172      24.94304437        0       0.01369947      -0.00490442      -0.01409214
H        0.51526192       2.48045508      24.63616596        0      -0.10845347       0.15901107       0.00846488
H       -3.82875301       0.25364475      24.47764096        0       0.01799119       0.01954559      -0.00712185
H       -3.77119818       5.07925267      25.39854104        0      -0.02544962      -0.00115760       0.00147436
H       -1.55686104       6.23462244      25.35804122        0       0.00838953       0.08842374      -0.00766068
