110
Lattice="11.45512985522207 0.0 0.0 5.727564927611035 9.92043345827187 0.0 0.0 0.0 31.691342951089922" Properties=species:S:1:pos:R:3:tags:I:1:forces:R:3 energy=-461.90679931640625 free_energy=-461.90679931640625 stress="0.00488500390201807 3.002118319272995e-06 -1.648440957069397e-07 3.002118319272995e-06 0.004921093583106995 -1.0835938155651093e-06 -1.648440957069397e-07 -1.0835938155651093e-06 0.004710284061729908" pbc="T T F"
Al       2.33500839       1.20911923      10.01764282        6       0.00060094      -0.00006529       0.00017859
Al       5.18920271       1.21084448      10.00972932        6       0.00267638      -0.00055913      -0.00093396
Al       8.04486945       1.23088600       9.99683055        6       0.00291570      -0.00127860      -0.00007837
Al      10.91004812       1.23607684       9.98003416        6       0.00211573      -0.00210973       0.00122237
Al       3.73577230       3.68795987      10.02050811        6       0.00328444       0.00003093      -0.00178664
Al       6.58862669       3.70728109       9.98522216        6       0.00367948      -0.00101227       0.00076939
Al       9.45363793       3.71776809       9.96112126        6       0.00266248      -0.00165971       0.00235653
Al      12.32544798       3.69338105      10.01269023        6       0.00362437      -0.00133987      -0.00096522
Al       5.12501316       6.18470190       9.95797662        6       0.00540188      -0.00090383       0.00152582
Al       7.98265725       6.18994311       9.93273403        6       0.00568513      -0.00083623       0.00413559
Al      10.86032580       6.17359829      10.00222101        6       0.00468583      -0.00045698       0.00078803
Al      13.73093911       6.16982834      10.00036778        6       0.00418823      -0.00008079      -0.00029266
Al       6.57620129       8.67059793       9.96538040        6       0.00360749      -0.00061037       0.00265206
Al       9.44995196       8.65353937       9.99380157        6       0.00330433      -0.00132280       0.00129986
Al      12.31865774       8.65485417       9.97966093        6       0.00319355      -0.00041361       0.00121611
Al      15.17866183       8.66892204       9.99391492        6       0.00329338      -0.00114311      -0.00003769
Al       1.01691330       1.98880939      12.38318096        5      -0.00092771       0.01477301      -0.00806857
Al       3.88325349       1.99577053      12.37549858        5       0.00471385       0.00278873       0.00197772
Al       6.75185424       1.99309542      12.37320018        5       0.00189512       0.01118441      -0.01028560
Al       9.61289648       2.00133195      12.36626576        5       0.00121182       0.00941294      -0.01011520
Al       2.44371742       4.48162458      12.37353459        5       0.00582361      -0.00131956       0.00086839
Al       5.30987643       4.48945016      12.36150854        5       0.00468803      -0.00090282       0.00584503
Al       8.17054893       4.49193988      12.35508045        5       0.00691558      -0.00348328      -0.00216352
Al      11.03509494       4.48395353      12.37805406        5      -0.00485680      -0.00138235      -0.00095229
Al       3.87854734       6.96083567      12.36271809        5       0.00806562       0.00244075      -0.00009024
Al       6.74526738       6.96231743      12.35176533        5       0.00224045       0.00279589       0.00288929
Al       9.60560698       6.96150103      12.38973969        5      -0.00757808       0.00156268      -0.02120152
Al      12.47312213       6.96118647      12.37228883        5      -0.00310914       0.00329450      -0.01110165
Al       5.31962898       9.44244023      12.37253115        5       0.00004565      -0.00832003      -0.01935645
Al       8.17698928       9.44485753      12.37940986        5       0.00931087      -0.02047409      -0.01429273
Al      11.04672075       9.43601891      12.37724632        5      -0.00056289      -0.00098965      -0.02345090
Al      13.90571491       9.44070070      12.36526918        5       0.00474471       0.00037578      -0.00157760
Al       1.11487507       0.29827481      14.65255305        4       0.00029887      -0.00306778       0.02384514
Al       3.98813840       0.29805330      14.65985553        4      -0.00409130       0.00051821       0.00484668
Al       6.84115958       0.28936071      14.65584537        4       0.00561142       0.00770035       0.00438355
Al       9.70191482       0.31489880      14.63610040        4       0.00282715      -0.00952168       0.02234122
Al       2.55510269       2.78870588      14.66085787        4      -0.00054284      -0.00298758       0.00481421
Al       5.41434811       2.78208125      14.64321866        4       0.00077601       0.00230503       0.01392146
Al       8.26955903       2.80449544      14.65012240        4       0.00571002      -0.01098244       0.01054562
Al      11.14029086       2.79080208      14.67422238        4      -0.00192273      -0.00088348       0.00240578
Al       3.98464560       5.26510459      14.66537104        4       0.00054623       0.00018021       0.00292993
Al       6.84063814       5.27003716      14.67081388        4      -0.00149247      -0.00309848      -0.01830803
Al       9.69246532       5.26417269      14.68575220        4       0.00588953      -0.00070036      -0.00509865
Al      12.56027673       5.26254457      14.63949459        4       0.00414023       0.00180535       0.02262257
Al       5.40887645       7.73392317      14.66061446        4      -0.00236417       0.00782008       0.00746662
Al       8.26236691       7.73291259      14.68805583        4       0.00265857       0.00806689      -0.00626525
Al      11.13174235       7.74682657      14.65240817        4       0.00273831      -0.00389711       0.01385094
Al      13.98826047       7.73583945      14.64384936        4       0.01457804       0.00533569       0.02095846
Al       2.67174049       1.05641405      16.95942506        3      -0.00381993      -0.00019691      -0.00399102
Al       5.53894726       1.06847307      16.95554832        3      -0.00056680       0.00607350      -0.01391233
Al       8.40673838       1.07475493      16.94952887        3       0.00125058       0.00088311      -0.02048541
Al      11.26264478       1.07192228      16.96072517        3       0.00272438      -0.00853576      -0.01664565
Al       4.10023937       3.53997278      16.96557211        3       0.00059792       0.01083796      -0.00071735
Al       6.95458466       3.57778508      16.96162611        3       0.00296228      -0.01638841      -0.00279395
Al       9.81350302       3.56007040      16.99963283        3      -0.00365478       0.00242760      -0.02908111
Al      12.68535831       3.55361793      16.95592872        3       0.00790497       0.00988178      -0.01306589
Al       5.53361192       6.03573632      16.98393679        3      -0.01795372       0.00602271       0.00629223
Al       8.36359715       6.02941090      16.99555760        3       0.02385537       0.01211336       0.01038838
Al      11.25593034       6.04304997      16.96504463        3      -0.00142729       0.00272673      -0.01022085
Al      14.12519410       6.03592114      16.96187748        3       0.00258732       0.00392972      -0.00427187
Al       6.95497651       8.48914251      17.00645521        3       0.00792618       0.01710826      -0.00549172
Al       9.82796925       8.50942926      16.96920606        3       0.00002963      -0.00401151      -0.00729280
Al      12.70477545       8.52400043      16.96410153        3       0.00130991      -0.00410788      -0.00317897
Al      15.57800696       8.51188634      16.99634463        3      -0.01347519       0.00297569      -0.03237351
Al       1.30848529       1.90755605      19.19859451        2       0.00343927      -0.00122651       0.01370734
Al       4.18811111       1.86313911      19.21802391        2      -0.00854962       0.00132027       0.02542557
Al       7.06262365       1.87472915      19.19739869        2      -0.00385791       0.00328719       0.02169521
Al       9.93092163       1.85968433      19.23517860        2      -0.00182834      -0.00048638       0.00539787
Al       2.74953688       4.39823781      19.24188907        2       0.00144231      -0.00129224      -0.00371341
Al       5.61535616       4.39051295      19.26756172        2      -0.00951762       0.00018446       0.01553625
Al       8.45181476       4.38118052      19.29782470        2       0.01328538      -0.00778360      -0.01000108
Al      11.34039338       4.38220647      19.20630178        2       0.00028120      -0.00099174       0.00712433
Al       4.18629360       6.87029757      19.28897020        2      -0.00101275       0.00074281       0.00563704
Al       7.05683075       6.82583572      19.35935675        2       0.00764319       0.01189812      -0.00369523
Al       9.90649130       6.85818649      19.25340194        2      -0.00058495       0.00374075       0.01214742
Al      12.78074750       6.85202156      19.23368275        2      -0.00401837       0.00714488       0.00578517
Al       5.61002727       9.34039446      19.27869392        2      -0.00060686       0.00191136       0.00414714
Al       8.51726626       9.30377696      19.27393564        2      -0.00138268       0.00097210       0.00877681
Al      11.34792862       9.32151625      19.23049877        2      -0.00549675       0.00188588       0.00801528
Al      14.23346437       9.34420445      19.26434933        2      -0.00119655       0.00247910       0.00326709
Al       1.46080175       0.27697739      21.44608402        1      -0.01384402       0.00053770       0.04418179
Al       4.20240357       0.30010915      22.03331142        1       0.00638739       0.00543281      -0.00785720
Al       7.07333299       0.25395748      21.52052066        1       0.00520344      -0.00238631      -0.01725686
Al      10.22071506       0.20736164      22.03977507        1      -0.00684020      -0.00049760      -0.01834683
Al       2.85731909       2.78493022      21.51127346        1      -0.01327723      -0.00825437       0.00751900
Al       5.71468759       2.72298910      21.47096499        1      -0.01632719       0.00986162       0.08022428
Al       8.63908188       2.59903405      21.50864522        1      -0.03273016       0.01405688       0.00990633
Al      11.42414712       2.79979468      21.53933323        1       0.00892716      -0.01470049      -0.03767924
Al       4.31021544       5.27583430      21.66050450        1      -0.00370411      -0.00640244       0.00697722
Al       7.28683253       5.05187223      21.77728269        1      -0.05188191       0.02216096      -0.03775114
Al      10.07754569       5.23175731      21.55951290        1      -0.02516594      -0.01028808      -0.00544797
Al      12.86932574       5.21824745      21.58399214        1       0.00768094       0.00673872      -0.00451530
Al       5.71384205       7.67501717      21.65291370        1       0.00399463       0.00237461      -0.01713275
Al       8.49692191       7.63120425      21.99897009        1      -0.00681053       0.00203046      -0.00043600
Al      11.45349444       7.67133507      21.58043080        1      -0.01229752       0.01651742       0.00113487
Al      14.29718498       7.75404486      21.62283755        1       0.00035883       0.00434336      -0.00325507
C        0.55291823       3.54511014      25.10877600        0      -0.06452081      -0.01478579      -0.01651636
C        0.46894138       2.22098152      24.67573909        0       0.11072120      -0.06552649      -0.04018243
C       -0.80913244       1.66248822      24.53310980        0       0.02701340       0.13802883       0.04131791
N       -1.20177461       0.40629697      24.08267742        0      -0.17853959       0.01587728       0.03317504
N       -2.53699104       0.38503497      24.45894571        0      -0.18314327       0.21321024       0.02502971
N       -3.06823264       1.58445728      24.75717653        0       0.20715325      -0.37744445      -0.02181935
C       -1.98152138       2.39946416      24.88197137        0       0.02594408      -0.20012273      -0.02343713
C       -1.88596744       3.73558357      25.31440244        0       0.14651288       0.14974692      -0.01239123
C       -0.61699448       4.29461742      25.40890589        0       0.00335874      -0.11868032       0.01491519
H        1.53555937       4.01502023      25.19037967        0      -0.00952153       0.00749312      -0.00336804
H        1.35743372       1.61728952      24.45207564        0      -0.07307005       0.10569015       0.01521352
H       -3.14299709      -0.38681024      24.16388984        0       0.01121221       0.01049605      -0.00464003
H       -2.78503753       4.31560505      25.52148178        0      -0.00670224      -0.00882352       0.00731635
H       -0.50882182       5.32886509      25.73480505        0       0.01272372       0.04120437      -0.01352481
