110
Lattice="11.45512985522207 0.0 0.0 5.727564927611035 9.92043345827187 0.0 0.0 0.0 31.691342951089922" Properties=species:S:1:pos:R:3:tags:I:1:forces:R:3 energy=-462.302734375 free_energy=-462.302734375 stress="0.006366038229316473 2.011191099882126e-06 -9.73232090473175e-08 2.011191099882126e-06 0.006401115097105503 1.5078112483024597e-06 -9.73232090473175e-08 1.5078112483024597e-06 0.006489550694823265" pbc="T T F"
Al       2.73929820       1.07687351       9.94956445        6      -0.00095153       0.00207201       0.00223363
Al       5.59451435       1.09571529       9.91566007        6      -0.00017850       0.00141235       0.00413496
Al       8.46076926       1.09133060       9.95022705        6      -0.00037157       0.00142453       0.00070319
Al      11.32205400       1.09149239       9.94518699        6      -0.00028508       0.00031586       0.00189266
Al       4.17655516       3.57585230       9.92041036        6      -0.00049272       0.00098302       0.00396840
Al       7.04712655       3.57525464       9.95164739        6      -0.00081957       0.00082822       0.00300592
Al       9.92128613       3.57946308       9.94425750        6      -0.00238173       0.00025299       0.00196279
Al      12.77030889       3.56815606       9.97156243        6      -0.00032719       0.00085680       0.00162359
Al       5.63126682       6.04597237       9.93991308        6      -0.00143296       0.00097411       0.00387471
Al       8.48801390       6.05063262       9.99418355        6      -0.00089466       0.00109958       0.00225942
Al      11.35323540       6.05624844       9.91296527        6      -0.00114467       0.00101298       0.00465029
Al      14.21191081       6.05118514       9.95219530        6      -0.00077359       0.00079065       0.00236695
Al       7.02987696       8.52583516       9.95532277        6      -0.00033006       0.00111031       0.00317089
Al       9.90319442       8.53841450       9.84734367        6      -0.00088672       0.00005068       0.00598381
Al      12.75885807       8.53625432       9.94288723        6      -0.00035305       0.00080467       0.00239337
Al      15.62780141       8.51993097       9.94441167        6      -0.00065158       0.00134941       0.00282710
Al       1.33319198       1.88224532      12.33842229        5      -0.00372934       0.02296097      -0.02201824
Al       4.19042771       1.88822471      12.31686701        5       0.01076023       0.00208849      -0.00223825
Al       7.05919141       1.88204322      12.32868107        5      -0.00661213       0.01217388      -0.01618416
Al       9.92032072       1.89725270      12.33173369        5       0.00261560       0.00700733      -0.01229270
Al       2.77070998       4.36825566      12.32581038        5       0.00158481       0.00272099       0.00557330
Al       5.62573565       4.37485808      12.32815317        5       0.00095540      -0.00122282       0.00727745
Al       8.48462783       4.37893333      12.34852313        5       0.00854999      -0.00107610      -0.00627923
Al      11.35630485       4.37795513      12.33497254        5      -0.00856781      -0.00441241      -0.00362489
Al       4.19797338       6.84498237      12.33328094        5       0.00328142       0.00408713       0.00668530
Al       7.06304519       6.85297721      12.35107555        5      -0.00471981       0.00574397       0.00278892
Al       9.92654019       6.85725477      12.33513734        5      -0.00420958       0.00093286      -0.00892846
Al      12.78276063       6.84540588      12.31279351        5      -0.00161142       0.00633954       0.00291711
Al       5.62828153       9.33289562      12.33747104        5      -0.00400697      -0.01163663      -0.02549459
Al       8.49514536       9.33903719      12.31781274        5       0.01079816      -0.02692002      -0.01599257
Al      11.34613994       9.32235922      12.31102199        5      -0.00045545       0.00525680      -0.00917389
Al      14.21561463       9.32918974      12.31936312        5       0.00046041      -0.00227146      -0.00215033
Al       1.34425109       0.21794776      14.58755694        4      -0.00407013      -0.00070003       0.03519919
Al       4.20452960       0.22187139      14.61255733        4      -0.00087987       0.00126031       0.00522569
Al       7.06023691       0.20747868      14.60750494        4       0.00265942       0.00577136       0.00869335
Al       9.92015097       0.23477664      14.58484263        4       0.00095108      -0.00693828       0.02764486
Al       2.78333925       2.71615212      14.62233723        4      -0.00331410      -0.00159074       0.00614220
Al       5.63172481       2.70488525      14.59779975        4       0.00074195       0.00123590       0.01685173
Al       8.48600148       2.72330040      14.61450620        4       0.00469973      -0.01156075       0.01803097
Al      11.36965039       2.70388359      14.62759942        4      -0.00422229       0.00055055       0.00675221
Al       4.20033759       5.19434450      14.65267399        4      -0.00080947       0.00078696       0.00275186
Al       7.05414407       5.18555407      14.65909061        4      -0.00685518       0.00573156      -0.01986310
Al       9.91986721       5.18460162      14.65470344        4       0.00456848      -0.00140706      -0.01101044
Al      12.78694811       5.18003349      14.59616712        4       0.00405396       0.00188543       0.02262693
Al       5.62579530       7.66934801      14.64682516        4      -0.00251495       0.00170376       0.00619296
Al       8.48564085       7.65921186      14.65397190        4       0.00146843       0.00783708      -0.01100364
Al      11.35531171       7.66156644      14.62180576        4      -0.00017530       0.00090841       0.00602258
Al      14.19474867       7.65111220      14.60551189        4       0.01457826       0.00510782       0.01889008
Al       2.76280805       1.02087626      16.92206989        3      -0.00253988       0.00175731       0.00215718
Al       5.63746635       1.02670986      16.92103216        3      -0.00339932       0.00365332      -0.01085827
Al       8.50215728       1.01910912      16.93004674        3       0.00194162       0.00180460      -0.01970614
Al      11.35576873       1.01726333      16.92917206        3       0.00251189      -0.01122011      -0.01048959
Al       4.20440525       3.51034626      16.94956318        3      -0.00058391       0.00175630       0.00489576
Al       7.05643935       3.53308731      16.94390389        3       0.00120325      -0.01654172      -0.00327670
Al       9.92143531       3.50485898      16.96398199        3      -0.00721143       0.00141607      -0.02230470
Al      12.78971096       3.51272269      16.94670341        3       0.00511348       0.00384960      -0.01597492
Al       5.62240979       5.99105616      16.99205374        3      -0.01054290       0.01884977      -0.00420734
Al       8.46862869       5.98789699      16.95629107        3       0.01904989       0.01836462       0.01995824
Al      11.36395491       5.99106759      16.94490749        3      -0.00268715       0.00497083      -0.00876203
Al      14.22273859       5.98646152      16.97129078        3       0.00115749       0.00329196      -0.00300701
Al       7.04699757       8.45114542      16.98034295        3       0.00681366       0.01466039      -0.00319437
Al       9.92157827       8.47566814      16.93583849        3       0.00012447      -0.00052238       0.00387758
Al      12.80418856       8.47133209      16.94757095        3      -0.00256932      -0.00316847      -0.00216091
Al      15.65269626       8.45147914      16.98114372        3      -0.00567894       0.00570961      -0.03260040
Al       1.31216015       1.86281744      19.19872309        2       0.00354682      -0.00789767       0.01722768
Al       4.20037308       1.83547393      19.19650874        2      -0.00367810       0.00122218       0.02388166
Al       7.07527596       1.84477782      19.17498200        2      -0.00009950       0.00570111       0.01968695
Al       9.93505746       1.82050380      19.22222670        2       0.00047405      -0.00239115       0.00674860
Al       2.77366072       4.34688419      19.27222272        2       0.00235426       0.00325775      -0.01202454
Al       5.63576404       4.36599706      19.26071211        2      -0.00364702       0.00633965       0.01890986
Al       8.47155006       4.36875643      19.26557180        2       0.01292063      -0.00355807      -0.01609357
Al      11.35200174       4.35250638      19.20523260        2       0.00126590      -0.00192444       0.01207932
Al       4.18404174       6.82517383      19.36339199        2       0.00043567       0.00181474       0.00502639
Al       7.03078586       6.81610067      19.34737934        2       0.01552211       0.00994919      -0.00931855
Al       9.92191540       6.84081136      19.20517379        2      -0.00131568       0.00502278       0.01472799
Al      12.78765058       6.82975391      19.23913151        2      -0.00109675       0.00497854      -0.00361365
Al       5.60058623       9.27627170      19.28452572        2       0.00364330       0.00712978       0.00747372
Al       8.50633547       9.31559646      19.24117582        2      -0.00394172      -0.00650138       0.01588649
Al      11.36507762       9.31441876      19.21058308        2      -0.00756836      -0.00521104       0.01137653
Al      14.23363428       9.30217239      19.26769091        2       0.00135708       0.00375655       0.00199249
Al       1.27147719       0.23309771      21.50498432        1      -0.00546918       0.00485423       0.03658588
Al       4.09134331       0.25667496      21.95091330        1       0.01005938      -0.00379679      -0.00717873
Al       7.03328928       0.25031151      21.49253707        1       0.00953909      -0.00513640      -0.01253759
Al       9.97443133       0.33716255      22.33578733        1       0.00613227       0.01221174      -0.03092387
Al       2.76483255       2.71794753      21.54499208        1      -0.00514996      -0.01067016       0.00438059
Al       5.66319679       2.70129317      21.45381663        1      -0.01263846       0.00899952       0.07593016
Al       8.55107072       2.65124749      21.45185127        1      -0.02511235       0.01882905      -0.00226361
Al      11.32208357       2.72964906      21.52111843        1       0.01751274      -0.00866078      -0.05596334
Al       4.15742105       5.14117179      21.78501779        1      -0.00353005       0.00173436       0.01949399
Al       7.17467357       5.11633238      21.71903849        1      -0.03514190       0.02198902      -0.03109013
Al       9.98301785       5.21897035      21.53295646        1      -0.02077609      -0.01404086       0.00122664
Al      12.76677426       5.17938026      21.55973866        1       0.00369629       0.00944592       0.00412536
Al       5.50410040       7.76669092      21.84074619        1       0.01161352       0.01140189      -0.00685238
Al       8.47363647       7.66233579      21.62804812        1      -0.01399599      -0.00126485      -0.01133051
Al      11.36135415       7.66773372      21.56540492        1      -0.00462404       0.01521490      -0.00224308
Al      14.20404529       7.74784834      21.68161761        1      -0.00409790       0.00283412      -0.00531911
C       -0.89635372       4.37709790      25.27422469        0      -0.05032730      -0.00936241      -0.02397777
C       -0.64081124       3.06759230      24.86613369        0       0.09492455      -0.03711598      -0.02037418
C       -1.73351391       2.19793642      24.73520354        0       0.01386814       0.09809504       0.02049821
N       -1.80568008       0.86681032      24.33698475        0      -0.19106318      -0.00219749      -0.00088905
N       -3.11375657       0.54525186      24.66292002        0      -0.12905055       0.16440122       0.01640656
N       -3.90438308       1.58499767      24.95586187        0       0.16247673      -0.31984904      -0.02862972
C       -3.04919561       2.63766629      25.06834049        0       0.02072775      -0.16790299      -0.01888346
C       -3.30609922       3.96181658      25.47713466        0       0.09766667       0.10483301      -0.01970076
C       -2.21786243       4.81622583      25.57119917        0       0.04987991      -0.12779845      -0.00902337
H       -0.06871981       5.08538382      25.35209823        0      -0.00976115      -0.01107963      -0.00031360
H        0.37134110       2.70478442      24.65559248        0      -0.06110779       0.08423670       0.01929008
H       -3.51721556      -0.34160952      24.34735234        0       0.00461305       0.00307031      -0.00905909
H       -4.32545659       4.29401339      25.67959617        0       0.01920510      -0.01701100       0.00145209
H       -2.37182964       5.84723528      25.88669983        0       0.02336195       0.05572122       0.00178120
