110
Lattice="11.45512985522207 0.0 0.0 5.727564927611035 9.92043345827187 0.0 0.0 0.0 31.691342951089922" Properties=species:S:1:pos:R:3:tags:I:1:forces:R:3 energy=-461.9114074707031 free_energy=-461.9114074707031 stress="0.004892744589596987 3.005843609571457e-06 -1.6577541828155518e-07 3.005843609571457e-06 0.004928981885313988 -1.0896474123001099e-06 -1.6577541828155518e-07 -1.0896474123001099e-06 0.004717671778053045" pbc="T T F"
Al       2.33760829       1.21125974      10.01720260        6       0.00055201      -0.00001606       0.00020917
Al       5.19273524       1.21326722      10.01181697        6       0.00264307      -0.00066265      -0.00112857
Al       8.04794338       1.23200807      10.00089054        6       0.00285294      -0.00107860      -0.00010035
Al      10.91124134       1.23920200       9.97823680        6       0.00237602      -0.00270742       0.00094652
Al       3.73867331       3.69007133      10.01777478        6       0.00314652      -0.00017079      -0.00157054
Al       6.59147348       3.71029396       9.98458777        6       0.00393493      -0.00143504       0.00056904
Al       9.45584498       3.72072101       9.95986436        6       0.00271994      -0.00193391       0.00235186
Al      12.32688165       3.69596693      10.01216210        6       0.00370475      -0.00146467      -0.00103411
Al       5.12601893       6.18582605       9.95485258        6       0.00528375      -0.00074064       0.00181302
Al       7.98317887       6.19259107       9.93149538        6       0.00610917      -0.00104968       0.00418577
Al      10.86004934       6.17614516       9.99951663        6       0.00513953      -0.00055756       0.00068044
Al      13.73248503       6.17073155       9.99739325        6       0.00368168       0.00012532       0.00059266
Al       6.57714219       8.67225535       9.96666414        6       0.00395580      -0.00080914       0.00232014
Al       9.45188084       8.65645884       9.99142006        6       0.00305384      -0.00096945       0.00178802
Al      12.32028539       8.65631651       9.98278002        6       0.00361878      -0.00093304       0.00034126
Al      15.18033763       8.66883414       9.99530574        6       0.00310348      -0.00067539       0.00044012
Al       1.01667492       1.98815562      12.38279588        5      -0.00091106       0.01406628      -0.00755962
Al       3.88225583       1.99561715      12.37583422        5       0.00481707       0.00242275       0.00199871
Al       6.75082220       1.99234059      12.37512610        5       0.00312964       0.01206782      -0.01165267
Al       9.61353323       2.00112434      12.36625374        5       0.00119714       0.00859315      -0.00980296
Al       2.44313267       4.47993838      12.37295773        5       0.00578265      -0.00056982       0.00111684
Al       5.30940697       4.48825195      12.36118808        5       0.00509325      -0.00090271       0.00592648
Al       8.17083377       4.49091891      12.35458992        5       0.00662097      -0.00356098      -0.00152891
Al      11.03464942       4.48247815      12.37764637        5      -0.00436807      -0.00078134      -0.00086701
Al       3.87982859       6.95872478      12.36264293        5       0.00703372       0.00275333      -0.00003930
Al       6.74545839       6.96063554      12.35213232        5       0.00229236       0.00305831       0.00255139
Al       9.60551487       6.95986906      12.38867131        5      -0.00715434       0.00190611      -0.01999372
Al      12.47241783       6.95941727      12.37131742        5      -0.00243188       0.00301996      -0.01119833
Al       5.31955766       9.44099728      12.37290680        5       0.00010274      -0.00768600      -0.01806527
Al       8.17676110       9.44397031      12.37902267        5       0.00955067      -0.02065232      -0.01471966
Al      11.04572033       9.43519033      12.37830553        5      -0.00045095      -0.00162118      -0.02507590
Al      13.90544726       9.43982876      12.36668579        5       0.00538552      -0.00022124      -0.00286541
Al       1.11427912       0.29669794      14.65254046        4       0.00074206      -0.00298516       0.02344130
Al       3.98714954       0.29760418      14.65924678        4      -0.00447315       0.00041066       0.00558505
Al       6.84035292       0.28867678      14.65594746        4       0.00640505       0.00800909       0.00484268
Al       9.70179303       0.31447626      14.63562792        4       0.00283282      -0.01012728       0.02261988
Al       2.55440158       2.78833103      14.66250938        4      -0.00042892      -0.00342925       0.00422253
Al       5.41398537       2.78136370      14.64391738        4       0.00085587       0.00238836       0.01434481
Al       8.27030073       2.80320259      14.65082616        4       0.00527804      -0.01076198       0.01024940
Al      11.14090259       2.78904660      14.67466935        4      -0.00182211      -0.00057996       0.00245614
Al       3.98393728       5.26339882      14.66614658        4       0.00076215       0.00030006       0.00291944
Al       6.84090214       5.26877821      14.67126520        4      -0.00172176      -0.00324356      -0.01896477
Al       9.69282758       5.26235836      14.68631436        4       0.00611107      -0.00034657      -0.00560808
Al      12.56008089       5.26194099      14.64008730        4       0.00400127       0.00151457       0.02190425
Al       5.40920796       7.73227978      14.66157192        4      -0.00281776       0.00791500       0.00714005
Al       8.26305679       7.73154491      14.68772102        4       0.00230641       0.00823712      -0.00619350
Al      11.13110709       7.74627690      14.65267363        4       0.00297562      -0.00454657       0.01351239
Al      13.98696010       7.73436624      14.64295629        4       0.01533780       0.00536264       0.02124810
Al       2.67131634       1.05469873      16.96025544        3      -0.00325306       0.00004595      -0.00436207
Al       5.53922161       1.06678426      16.95597913        3      -0.00072704       0.00646535      -0.01469067
Al       8.40730901       1.07325116      16.94952499        3       0.00069410       0.00089738      -0.02039747
Al      11.26308457       1.07088962      16.96107350        3       0.00244075      -0.00894676      -0.01732608
Al       4.10083499       3.53835003      16.96647899        3       0.00044863       0.01096839      -0.00076326
Al       6.95492471       3.57762870      16.96235362        3       0.00276011      -0.01781034      -0.00352748
Al       9.81376144       3.55898876      16.99972912        3      -0.00339548       0.00217766      -0.03041157
Al      12.68585576       3.55255040      16.95747031        3       0.00788783       0.00996477      -0.01403810
Al       5.53351128       6.03487164      16.98495698        3      -0.01770479       0.00557646       0.00593082
Al       8.36408839       6.02874536      16.99572236        3       0.02392409       0.01210777       0.01051346
Al      11.25624048       6.04253837      16.96714058        3      -0.00148174       0.00233999      -0.01240773
Al      14.12541433       6.03452683      16.96261002        3       0.00252143       0.00365042      -0.00361811
Al       6.95570269       8.48774552      17.00696166        3       0.00793482       0.01753420      -0.00676706
Al       9.82815213       8.50778716      16.97000296        3      -0.00024979      -0.00366566      -0.00839624
Al      12.70499633       8.52207489      16.96422871        3       0.00138466      -0.00347464      -0.00227241
Al      15.57773114       8.51074414      16.99642513        3      -0.01353852       0.00274472      -0.03299337
Al       1.30739707       1.90583368      19.19920242        2       0.00394462      -0.00104499       0.01437036
Al       4.18904166       1.86138687      19.21885715        2      -0.00900687       0.00183892       0.02655870
Al       7.06232782       1.87395651      19.19695689        2      -0.00412316       0.00301929       0.02339662
Al       9.93103867       1.85875424      19.23538102        2      -0.00198727      -0.00059848       0.00613566
Al       2.75028359       4.39562004      19.24311714        2       0.00142740      -0.00072756      -0.00398534
Al       5.61467046       4.38917623      19.26866126        2      -0.00901808       0.00053815       0.01567039
Al       8.45189598       4.37939332      19.29659405        2       0.01380180      -0.00757056      -0.00967056
Al      11.34037865       4.38132277      19.20552540        2       0.00010155      -0.00129168       0.00902889
Al       4.18533756       6.86835188      19.29006868        2      -0.00062665       0.00131009       0.00497363
Al       7.05683106       6.82524126      19.35903583        2       0.00758751       0.01187237      -0.00347793
Al       9.90622727       6.85749147      19.25456719        2      -0.00068460       0.00345824       0.01260796
Al      12.78076144       6.85028843      19.23408274        2      -0.00394067       0.00762578       0.00628614
Al       5.61079780       9.33818621      19.27738041        2      -0.00069034       0.00201533       0.00513183
Al       8.51842077       9.30412865      19.27496648        2      -0.00200039       0.00003712       0.00984960
Al      11.34752172       9.31987106      19.23028870        2      -0.00506709       0.00191647       0.00924188
Al      14.23467222       9.34301680      19.26549300        2      -0.00167045       0.00228051       0.00397734
Al       1.45866621       0.27557716      21.44578926        1      -0.01323203       0.00092022       0.04535006
Al       4.20028642       0.29681246      22.03520719        1       0.00704042       0.00580382      -0.00866276
Al       7.07400169       0.25256437      21.51993131        1       0.00462389      -0.00219313      -0.01734097
Al      10.22002960       0.20659155      22.04456223        1      -0.00739627      -0.00017034      -0.01899311
Al       2.85779187       2.78342654      21.51121682        1      -0.01366337      -0.00814507       0.00826589
Al       5.71396254       2.72237054      21.47291898        1      -0.01626696       0.00977632       0.08111245
Al       8.63769945       2.59809646      21.50836293        1      -0.03341407       0.01524411       0.01032853
Al      11.42311094       2.79944147      21.54090808        1       0.00976018      -0.01495348      -0.03873000
Al       4.31097101       5.27871905      21.66465930        1      -0.00377786      -0.00748831       0.00682783
Al       7.28391305       5.05405952      21.77018079        1      -0.05214612       0.02196666      -0.03759770
Al      10.07759099       5.22900448      21.55968063        1      -0.02648201      -0.00958768      -0.00551030
Al      12.87010470       5.21923121      21.58163262        1       0.00778990       0.00605293      -0.00377751
Al       5.71484699       7.67720300      21.65391094        1       0.00367617       0.00188472      -0.01764432
Al       8.49739689       7.62919106      22.00085169        1      -0.00652151       0.00200777      -0.00176497
Al      11.45402705       7.67012770      21.58109536        1      -0.01317995       0.01693651       0.00113098
Al      14.29647074       7.75379039      21.62644871        1       0.00059717       0.00438461      -0.00401662
C        0.54831498       3.55097018      25.10682070        0      -0.06428862      -0.01406229      -0.01625949
C        0.46434431       2.22634290      24.67524996        0       0.11008035      -0.06545859      -0.03960206
C       -0.81378255       1.66707680      24.53537168        0       0.02814995       0.13686261       0.04093671
N       -1.20628717       0.41027333      24.08672733        0      -0.18069685       0.01732507       0.03241302
N       -2.54177377       0.38943010      24.46252636        0      -0.18405104       0.21443193       0.02530565
N       -3.07287244       1.58956566      24.75901409        0       0.20645650      -0.38037047      -0.02184177
C       -1.98602843       2.40411664      24.88397702        0       0.02673425      -0.19999510      -0.02356711
C       -1.89049138       3.74072407      25.31479319        0       0.14765540       0.15209609      -0.01284195
C       -0.62159805       4.30025552      25.40765422        0       0.00369383      -0.12033586       0.01467278
H        1.53095018       4.02132294      25.18665674        0      -0.01085995       0.00706297      -0.00344740
H        1.35278774       1.62272337      24.45125902        0      -0.07309311       0.10582609       0.01527325
H       -3.14790165      -0.38070902      24.16308356        0       0.01094637       0.01062533      -0.00347218
H       -2.78957483       4.32093907      25.52123158        0      -0.00680718      -0.00890398       0.00794535
H       -0.51351199       5.33478649      25.73253727        0       0.01307197       0.04227664      -0.01340858
