110
Lattice="11.45512985522207 0.0 0.0 5.727564927611035 9.92043345827187 0.0 0.0 0.0 31.691342951089922" Properties=species:S:1:pos:R:3:tags:I:1:forces:R:3 energy=-462.1201171875 free_energy=-462.1201171875 stress="0.004944267217069864 2.655666321516037e-06 -2.0116567611694336e-07 2.655666321516037e-06 0.004988278727978468 -6.300397217273712e-07 -2.0116567611694336e-07 -6.300397217273712e-07 0.004838444292545319" pbc="T T F"
Al       2.51894395       1.17368327      10.02500630        6       0.00181658      -0.00043921      -0.00217507
Al       5.38117262       1.17792220      10.01050706        6       0.00211582      -0.00071542      -0.00145110
Al       8.24320281       1.18017903      10.02295079        6       0.00202053      -0.00011820      -0.00090778
Al      11.10369214       1.18273611       9.99678258        6       0.00190762       0.00023194       0.00121814
Al       3.94534761       3.66172683       9.99845739        6       0.00206454      -0.00110580      -0.00019283
Al       6.80497540       3.66340066       9.99703567        6       0.00195308       0.00004900       0.00170900
Al       9.67118171       3.66704740       9.99877688        6       0.00159210       0.00019285       0.00167680
Al      12.53902172       3.65804499      10.02410685        6       0.00186532      -0.00106422      -0.00242054
Al       5.36016696       6.14057573       9.98299351        6       0.00205515       0.00028150       0.00217278
Al       8.21690572       6.14742124       9.99982744        6       0.00363668      -0.00098257       0.00017537
Al      11.09747447       6.14373424       9.98960025        6       0.00140048      -0.00040518       0.00131386
Al      13.96290278       6.14058046      10.01111803        6       0.00179303      -0.00097519      -0.00099466
Al       6.78414335       8.62557648       9.99275232        6       0.00379327      -0.00089924       0.00002337
Al       9.66166264       8.62075742       9.99161725        6       0.00188213      -0.00058089       0.00083701
Al      12.52904756       8.61811222      10.01494965        6       0.00190345      -0.00018849      -0.00077836
Al      15.38776397       8.61898223      10.01147248        6       0.00196415       0.00034299       0.00105250
Al       1.16945929       1.94246954      12.37658138        5       0.00072516       0.00647846       0.00009145
Al       4.04068179       1.95264207      12.36956761        5       0.00040140      -0.00134318      -0.00049624
Al       6.89795198       1.94221349      12.37799415        5       0.00165086       0.01112233      -0.00514954
Al       9.75921196       1.94585136      12.37706256        5       0.00167397       0.00851012      -0.00169649
Al       2.59924523       4.43535333      12.37880854        5       0.01107748      -0.00556633      -0.01050352
Al       5.45995672       4.43915957      12.37036370        5       0.00676565      -0.00276213       0.00210611
Al       8.31980394       4.44053129      12.37295244        5       0.00665974      -0.00591058       0.00112297
Al      11.19239772       4.42941761      12.37113141        5      -0.00807037       0.00088322       0.00578071
Al       4.03105099       6.91494295      12.37971422        5       0.00658786      -0.00167339      -0.00188330
Al       6.89278059       6.91360746      12.37209805        5       0.00227647       0.00095868       0.00348337
Al       9.76132398       6.90805271      12.37834210        5      -0.00494391       0.00126843      -0.01054034
Al      12.62205769       6.90667550      12.37744489        5       0.00015959       0.00370132      -0.00961732
Al       5.46725760       9.38970586      12.38558605        5       0.00071372      -0.00342608      -0.01673692
Al       8.32839226       9.38865660      12.37139550        5       0.00677679      -0.00596790      -0.00350739
Al      11.19480151       9.38510132      12.37864165        5      -0.00372377       0.00203963      -0.01957026
Al      14.05380061       9.38929741      12.39239914        5       0.00836581      -0.00221612      -0.02118311
Al       1.23638309       0.25183562      14.65026025        4      -0.00022726      -0.00255993       0.01671243
Al       4.09846017       0.25315612      14.65043591        4       0.00003959       0.00011865       0.00402750
Al       6.95038238       0.23730054      14.66580118        4       0.01063924       0.01434476       0.00440110
Al       9.82345355       0.25959680      14.65190518        4      -0.00085063      -0.00662659       0.01844101
Al       2.67295079       2.73716264      14.64686697        4       0.00019607      -0.00049712       0.00573829
Al       5.53152878       2.73918793      14.64965049        4      -0.00019704       0.00025024       0.00645137
Al       8.37670964       2.75417074      14.65678395        4       0.00778220      -0.01333480       0.00723025
Al      11.25377296       2.73686390      14.66056450        4       0.00075307      -0.00013084       0.00272179
Al       4.09658610       5.22432207      14.67037593        4       0.00085931      -0.00129727       0.00206402
Al       6.94533133       5.22734941      14.67965571        4       0.00359245      -0.00315990      -0.01014701
Al       9.81438834       5.21543537      14.67345514        4       0.00156411       0.00016568      -0.00142642
Al      12.67741667       5.20927504      14.64455223        4       0.00575047       0.00241187       0.01268283
Al       5.52387183       7.68703775      14.67402902        4      -0.00378355       0.00853923       0.00841761
Al       8.37614022       7.68870758      14.67517859        4       0.00636803       0.00444685      -0.00262900
Al      11.24716029       7.69951350      14.65094806        4       0.00251199      -0.00393151       0.01043917
Al      14.09950027       7.68576533      14.66041406        4       0.01695356       0.00548960       0.01765028
Al       2.75176777       1.01867070      16.95265479        3      -0.00453828      -0.00115567      -0.01458528
Al       5.60807319       1.03043495      16.95732772        3       0.00302159       0.00205830      -0.01539815
Al       8.47329065       1.02855572      16.96119697        3      -0.00060852      -0.00572124      -0.02344465
Al      11.33555654       1.01821262      16.95533143        3       0.00008230      -0.01068704      -0.01666770
Al       4.17435076       3.50394365      16.96371246        3       0.00303944       0.00996298       0.00038985
Al       7.01974437       3.53997824      16.96914988        3       0.00292369      -0.01589320      -0.00214422
Al       9.88241604       3.50924768      16.97142849        3       0.00237019       0.00485844      -0.01587313
Al      12.76410506       3.50862224      16.94334942        3       0.00392348       0.00371734      -0.00567097
Al       5.60015527       5.99476260      17.00989455        3      -0.01855830       0.00823265       0.00347669
Al       8.44362415       5.99151845      16.97722322        3       0.01228756       0.01198960       0.00738104
Al      11.33515951       6.00033553      16.95287711        3      -0.00092799       0.00150070      -0.00628342
Al      14.20154323       5.98857096      16.97597338        3       0.00339610       0.00581679      -0.00047414
Al       7.03380970       8.44733302      16.99546711        3       0.00050023       0.01074964      -0.00397760
Al       9.91016993       8.46784512      16.96826257        3      -0.00598383      -0.00041525      -0.01243060
Al      12.77179447       8.47307120      16.98008126        3       0.00346791      -0.00014712      -0.00530109
Al      15.63365349       8.45141713      17.01253134        3      -0.00394505       0.00152958      -0.02515527
Al       1.34184981       1.83637102      19.17509444        2       0.00763829       0.00008537       0.02416534
Al       4.23678957       1.83619947      19.21720410        2      -0.00922112       0.00116092       0.02690917
Al       7.10326588       1.83938704      19.20502603        2      -0.01239861       0.00619916       0.01599618
Al       9.96269938       1.81757901      19.20667152        2       0.00201528      -0.00151296       0.01528684
Al       2.79087075       4.34615376      19.23180250        2       0.00117816      -0.00471888       0.01176312
Al       5.65942182       4.35612681      19.29618529        2      -0.01387502       0.00363081       0.02696412
Al       8.49713929       4.34994159      19.25748970        2       0.01100824       0.00187436      -0.00050345
Al      11.37643567       4.35124410      19.18694360        2       0.00125649      -0.00617069       0.02251141
Al       4.23910657       6.80610323      19.41206682        2       0.00152789      -0.00175541       0.00132613
Al       7.06091041       6.79016681      19.34511699        2       0.01250436       0.00948624       0.00293843
Al       9.95339939       6.80913290      19.22506596        2       0.00170251       0.00553253       0.00268264
Al      12.83772323       6.81179944      19.24152346        2      -0.00742524       0.00693120       0.01281065
Al       5.64911730       9.26813873      19.28435076        2      -0.00621852       0.00039192       0.01506006
Al       8.53444715       9.28689079      19.23935914        2       0.00071704      -0.00112310       0.00503595
Al      11.38698649       9.29872888      19.24349154        2      -0.00366258      -0.00108087       0.00347011
Al      14.27076283       9.30278261      19.28289555        2       0.00070850      -0.00110174       0.00909800
Al       1.40547621       0.20311027      21.47433430        1      -0.00965764       0.01753320       0.04538844
Al       4.18634747       0.19953527      22.00032560        1       0.01225469       0.00763264      -0.02704569
Al       7.09444825       0.24841286      21.51556675        1       0.00803609      -0.00926284      -0.01757443
Al      10.14840003       0.28026722      22.15785690        1      -0.02757507       0.00344728      -0.02206506
Al       2.85029135       2.70662892      21.51411320        1      -0.00330383      -0.01350462      -0.00227040
Al       5.71679442       2.70874446      21.51097356        1      -0.00924896       0.00496703       0.04215353
Al       8.63574654       2.63626290      21.43239845        1      -0.03682688       0.01939519       0.03715853
Al      11.42568270       2.72085579      21.45926630        1       0.01383734      -0.01068775      -0.02652322
Al       4.17338819       5.14131099      22.00512387        1       0.01438152      -0.00062557      -0.02156372
Al       7.27031443       5.08710231      21.76339190        1      -0.05367296       0.03455020      -0.05675976
Al      10.09170729       5.17490984      21.57282907        1      -0.04229181       0.00011996      -0.01509146
Al      12.84749954       5.15900505      21.56149014        1       0.01284717       0.01440337      -0.01316722
Al       5.63510210       7.75502372      21.97431107        1       0.02956664      -0.02887782      -0.03226827
Al       8.56256699       7.61045099      21.58006780        1      -0.00952960       0.00287668      -0.00192545
Al      11.49481504       7.65438325      21.57094646        1      -0.01863937       0.01178509      -0.00203922
Al      14.33051464       7.73235724      21.65478169        1      -0.01454782       0.00241638       0.00380648
C       -0.31115093       4.10287641      24.96930118        0      -0.06937470      -0.01645217      -0.00572223
C       -0.17991497       2.75160054      24.64732980        0       0.07788324      -0.11009250      -0.05658157
C       -1.34923041       1.97667571      24.58043632        0      -0.04414390       0.15175791       0.04278383
N       -1.55942480       0.66681124      24.17137039        0      -0.17527153      -0.01243943       0.02962878
N       -2.87581053       0.44775720      24.55263758        0      -0.11158992       0.29026315       0.03287012
N       -3.56012874       1.55746888      24.86448234        0       0.13149644      -0.30394888      -0.01672315
C       -2.61709991       2.53714538      24.93166532        0       0.09304064      -0.29084513      -0.02313593
C       -2.73717999       3.89838846      25.27250491        0       0.12705392       0.14211227      -0.01170812
C       -1.58024716       4.66821453      25.26727524        0      -0.01416002      -0.10685159       0.01394270
H        0.57491198       4.73985955      24.95189671        0       0.01634662       0.02026641       0.00970259
H        0.79170227       2.29146079      24.43766133        0      -0.04243936       0.07860665       0.02096056
H       -3.36918210      -0.39775558      24.24867726        0       0.03887345       0.02472849      -0.01439594
H       -3.71371523       4.33292328      25.48211229        0      -0.02837661      -0.00043354       0.01056060
H       -1.64657876       5.73566466      25.47906729        0       0.02431796       0.02898540       0.00250401
