110
Lattice="11.45512985522207 0.0 0.0 5.727564927611035 9.92043345827187 0.0 0.0 0.0 31.691342951089922" Properties=species:S:1:pos:R:3:tags:I:1:forces:R:3 energy=-461.8143005371094 free_energy=-461.8143005371094 stress="0.004640824161469936 3.2959505915641785e-06 -8.475035429000854e-08 3.2959505915641785e-06 0.004664211999624968 -1.5040859580039978e-06 -8.475035429000854e-08 -1.5040859580039978e-06 0.004401697311550379" pbc="T T F"
Al       2.30095382       1.13867488      10.03022234        6       0.00103623       0.00031601      -0.00055996
Al       5.15438722       1.14613287      10.00512874        6       0.00286177      -0.00021886      -0.00143543
Al       8.01089596       1.16293345       9.98571832        6       0.00325339      -0.00041696      -0.00017241
Al      10.87773309       1.16422345       9.98042554        6       0.00271968      -0.00115656       0.00122697
Al       3.70837862       3.62548623      10.00637738        6       0.00336459      -0.00001595      -0.00115949
Al       6.56336802       3.64153209       9.97796092        6       0.00352621      -0.00059393       0.00075207
Al       9.43341640       3.64697287       9.97088382        6       0.00241400      -0.00094445       0.00180188
Al      12.30438974       3.62530567      10.01755953        6       0.00306040      -0.00078294      -0.00083886
Al       5.10627610       6.11833843       9.96141610        6       0.00469112      -0.00036740       0.00171753
Al       7.96878630       6.11703745       9.95544412        6       0.00469306      -0.00002087       0.00295667
Al      10.84450019       6.10454423      10.01087802        6       0.00363122       0.00044420       0.00098704
Al      13.71007750       6.10669973       9.99578776        6       0.00404803       0.00002299      -0.00070934
Al       6.55252327       8.59738794       9.97651191        6       0.00356128       0.00007703       0.00209967
Al       9.42518561       8.58291071       9.99891046        6       0.00303886      -0.00038141       0.00136264
Al      12.28995101       8.58954182       9.98109965        6       0.00345410      -0.00030744       0.00039909
Al      15.14981875       8.60173492       9.97768219        6       0.00358829      -0.00051087       0.00038445
Al       1.02263534       1.96981229      12.38787715        5      -0.00047133       0.01185578      -0.00721276
Al       3.88995640       1.97808836      12.37085264        5       0.00394332       0.00190089       0.00269306
Al       6.75707484       1.97409976      12.36622196        5       0.00229948       0.00991524      -0.00861441
Al       9.61891132       1.98141662      12.36469981        5       0.00091478       0.00753020      -0.00825077
Al       2.45313740       4.46136991      12.36835557        5       0.00498201      -0.00062669       0.00093813
Al       5.31666668       4.46786835      12.35452217        5       0.00392707      -0.00034772       0.00562519
Al       8.17776203       4.46952249      12.35703582        5       0.00588632      -0.00263118      -0.00141347
Al      11.04417480       4.46278493      12.38249450        5      -0.00473535      -0.00037522      -0.00112746
Al       3.88598331       6.94119035      12.35798575        5       0.00691745       0.00269214       0.00003758
Al       6.75077701       6.94052196      12.35861970        5       0.00238847       0.00321125       0.00280547
Al       9.61414745       6.94047702      12.39344550        5      -0.00700998       0.00173100      -0.01906656
Al      12.48133388       6.94226774      12.37020484        5      -0.00244608       0.00272889      -0.01002866
Al       5.32520849       9.42124400      12.37238848        5       0.00058603      -0.00653522      -0.01618625
Al       8.18427307       9.42265501      12.38467273        5       0.00783492      -0.01801943      -0.01217975
Al      11.05263562       9.41665865      12.37325957        5      -0.00041778      -0.00061167      -0.01968818
Al      13.91392166       9.42172473      12.35757628        5       0.00466742       0.00039050      -0.00164177
Al       1.12878554       0.29059097      14.65734593        4       0.00081912      -0.00278888       0.01946383
Al       4.00264693       0.29610905      14.65580288        4      -0.00333772       0.00026827       0.00458270
Al       6.85589173       0.28548284      14.64881571        4       0.00451329       0.00603188       0.00349442
Al       9.71622453       0.30652904      14.63563056        4       0.00231223      -0.00833844       0.01911408
Al       2.56978736       2.78387586      14.65639431        4      -0.00045989      -0.00288082       0.00443805
Al       5.42905971       2.77903672      14.63835234        4       0.00066701       0.00193510       0.01169718
Al       8.28312245       2.79638819      14.64795414        4       0.00495373      -0.00916289       0.00864892
Al      11.15270624       2.78558877      14.67396511        4      -0.00168766      -0.00111180       0.00188856
Al       3.99822257       5.26081048      14.65793172        4       0.00077090       0.00015834       0.00267075
Al       6.85548965       5.26313588      14.66866838        4      -0.00146605      -0.00248964      -0.01522459
Al       9.70763364       5.25841594      14.68536186        4       0.00498510      -0.00029697      -0.00436937
Al      12.57765341       5.25867013      14.63901853        4       0.00349919       0.00149649       0.01908246
Al       5.42315472       7.72715790      14.66162719        4      -0.00197963       0.00653708       0.00556553
Al       8.27836321       7.72786862      14.68929974        4       0.00227321       0.00686088      -0.00531723
Al      11.14781536       7.74271160      14.65057528        4       0.00221247      -0.00320249       0.01162645
Al      14.00426341       7.73241401      14.63912306        4       0.01289854       0.00459833       0.01863712
Al       2.69404667       1.06873816      16.95336266        3      -0.00316947      -0.00053829      -0.00324715
Al       5.56088344       1.08237627      16.94681133        3      -0.00046682       0.00523187      -0.01157851
Al       8.42770366       1.08771256      16.94082335        3       0.00112828       0.00086530      -0.01723733
Al      11.28434249       1.08258660      16.95394972        3       0.00232583      -0.00776228      -0.01406655
Al       4.12382346       3.55210386      16.95814011        3       0.00037735       0.00897743      -0.00011340
Al       6.97733581       3.58902286      16.95796640        3       0.00213689      -0.01374896      -0.00259879
Al       9.83456987       3.57353891      16.99287961        3      -0.00334566       0.00164511      -0.02535678
Al      12.70993605       3.56667585      16.94682220        3       0.00635694       0.00839695      -0.01152897
Al       5.55498309       6.04705586      16.97837656        3      -0.01487848       0.00429689       0.00505440
Al       8.38814226       6.04090674      16.99232680        3       0.01965634       0.01003769       0.00915335
Al      11.27813960       6.05716708      16.95807566        3      -0.00164361       0.00218388      -0.00874554
Al      14.14951977       6.04898661      16.95317573        3       0.00185524       0.00324300      -0.00337622
Al       6.97693576       8.50023600      17.00295679        3       0.00695762       0.01487821      -0.00444314
Al       9.85038879       8.52204335      16.96293298        3      -0.00008735      -0.00313150      -0.00563331
Al      12.72628965       8.53724659      16.95561044        3       0.00105144      -0.00341430      -0.00261992
Al      15.59900780       8.52450920      16.98736316        3      -0.01193404       0.00216928      -0.02826715
Al       1.33522843       1.92453997      19.18840525        2       0.00273872      -0.00097437       0.01199989
Al       4.21377609       1.87799507      19.21258214        2      -0.00761580       0.00122557       0.02259861
Al       7.09053535       1.89265174      19.19092792        2      -0.00406909       0.00173219       0.01998655
Al       9.95822691       1.87826737      19.22244349        2      -0.00169038      -0.00104562       0.00499030
Al       2.77546020       4.41555491      19.22877921        2       0.00088322      -0.00108128      -0.00349256
Al       5.64090516       4.40673977      19.26236352        2      -0.00716057      -0.00007412       0.01288285
Al       8.48009172       4.39524491      19.29437843        2       0.01125962      -0.00630637      -0.00879233
Al      11.36840264       4.39990825      19.19349725        2      -0.00009458      -0.00110905       0.00634996
Al       4.21373799       6.88775262      19.27652037        2      -0.00132347       0.00067278       0.00430149
Al       7.08948985       6.84010570      19.35037377        2       0.00658370       0.00974274      -0.00338611
Al       9.93515555       6.87752458      19.24803981        2      -0.00099926       0.00298523       0.00965675
Al      12.80733915       6.87089229      19.21833542        2      -0.00354358       0.00609087       0.00516714
Al       5.63652447       9.36108211      19.27209768        2      -0.00072291       0.00124253       0.00332921
Al       8.54273807       9.31990265      19.26526024        2      -0.00097791      -0.00018707       0.00893928
Al      11.37380947       9.34212954      19.22082982        2      -0.00487305       0.00150383       0.00716625
Al      14.25833103       9.36359210      19.24760841        2      -0.00116550       0.00156342       0.00253546
Al       1.50197141       0.29959463      21.43768403        1      -0.01166551       0.00071866       0.03724299
Al       4.23883410       0.33053085      22.02436941        1       0.00488657       0.00412510      -0.00637353
Al       7.11289964       0.27401662      21.51438964        1       0.00359757      -0.00132545      -0.01440624
Al      10.27033053       0.22196488      22.01818866        1      -0.00690213      -0.00093021      -0.01534210
Al       2.89083436       2.80762923      21.50005860        1      -0.01115833      -0.00678709       0.00680032
Al       5.75007798       2.74206085      21.46237033        1      -0.01320410       0.00882967       0.06822772
Al       8.67789248       2.60631810      21.50481429        1      -0.02791964       0.01246853       0.00855909
Al      11.45801863       2.81915503      21.52473358        1       0.00758796      -0.01207997      -0.03291950
Al       4.34329433       5.29484962      21.64586568        1      -0.00327273      -0.00546280       0.00598733
Al       7.34135017       5.06346921      21.79461023        1      -0.04397168       0.01790607      -0.03270351
Al      10.12133088       5.25056675      21.54851544        1      -0.02230521      -0.00819955      -0.00451882
Al      12.90619013       5.24414486      21.57324706        1       0.00549072       0.00541171      -0.00400697
Al       5.75162440       7.68848343      21.62354860        1       0.00316198       0.00130875      -0.01484774
Al       8.52410570       7.66089248      22.01336469        1      -0.00594721       0.00101424      -0.00062030
Al      11.48278579       7.69970195      21.56114027        1      -0.01229406       0.01505101       0.00102621
Al      14.32844968       7.77580632      21.60661387        1       0.00059971       0.00328883      -0.00240829
C        0.55166233       3.58390422      25.04586947        0      -0.05703602      -0.00836024      -0.01489309
C        0.50331506       2.25111055      24.63395411        0       0.09336662      -0.05670889      -0.03435180
C       -0.75939798       1.65399990      24.50719044        0       0.02726409       0.12078162       0.03480927
N       -1.11960808       0.38268646      24.06866931        0      -0.15443103       0.01665501       0.02711925
N       -2.45175488       0.32760679      24.45168177        0      -0.16065587       0.18008991       0.02155671
N       -3.01187775       1.51203205      24.74941255        0       0.17791034      -0.32217255      -0.01783924
C       -1.94937006       2.36100974      24.85649777        0       0.02440798      -0.17557226      -0.02020339
C       -1.89011615       3.70856919      25.26216240        0       0.12272299       0.12693021      -0.01096546
C       -0.63741804       4.30547694      25.33874125        0       0.00799747      -0.10497835       0.01337443
H        1.52094832       4.08333414      25.11243595        0      -0.01009490       0.00654625      -0.00367246
H        1.40737322       1.67103664      24.41326421        0      -0.06307384       0.09085219       0.01310381
H       -3.03777309      -0.46475575      24.17151767        0       0.01043039       0.00949597      -0.00431010
H       -2.80487115       4.26710060      25.46017717        0      -0.00324277      -0.00795435       0.00686336
H       -0.55772095       5.35054014      25.63820680        0       0.01101616       0.03417706      -0.01141309
