110
Lattice="11.45512985522207 0.0 0.0 5.727564927611035 9.92043345827187 0.0 0.0 0.0 31.691342951089922" Properties=species:S:1:pos:R:3:tags:I:1:forces:R:3 energy=-461.9107360839844 free_energy=-461.9107360839844 stress="0.004877996630966663 2.987682819366455e-06 -1.7881393432617188e-07 2.987682819366455e-06 0.004915493540465832 -1.0593794286251068e-06 -1.7881393432617188e-07 -1.0593794286251068e-06 0.004707204177975655" pbc="T T F"
Al       2.33488123       1.21538263      10.01867773        6       0.00052624       0.00001360       0.00034817
Al       5.19167950       1.21782562      10.01163500        6       0.00251709      -0.00070230      -0.00106267
Al       8.04706862       1.23366949      10.00270850        6       0.00275160      -0.00078838      -0.00006663
Al      10.90828786       1.24114661       9.97726040        6       0.00241007      -0.00212117       0.00131805
Al       3.73865310       3.69410160      10.01519181        6       0.00319267      -0.00032067      -0.00156897
Al       6.59334284       3.71441522       9.98569657        6       0.00393685      -0.00167160       0.00028586
Al       9.45714404       3.72406332       9.96252369        6       0.00271322      -0.00197151       0.00220995
Al      12.32682545       3.69949235      10.01306989        6       0.00351855      -0.00156745      -0.00103234
Al       5.12785672       6.18830310       9.95523602        6       0.00500126      -0.00063056       0.00223089
Al       7.98620593       6.19626486       9.93644939        6       0.00500599      -0.00060642       0.00417753
Al      10.86119027       6.18108396       9.99914294        6       0.00457822      -0.00052581       0.00104154
Al      13.73268734       6.17417160       9.99912080        6       0.00445320      -0.00049835      -0.00085389
Al       6.57654142       8.67514973       9.96775565        6       0.00394710      -0.00094281       0.00229665
Al       9.45158912       8.66257955       9.98441718        6       0.00288888      -0.00100489       0.00214818
Al      12.32000754       8.65941441       9.98515492        6       0.00338034      -0.00079677       0.00033926
Al      15.17936562       8.66970856       9.99679907        6       0.00344678      -0.00075436       0.00002122
Al       1.01552560       1.98901878      12.38359283        5      -0.00111421       0.01386501      -0.00785099
Al       3.88128023       1.99674036      12.37582705        5       0.00467265       0.00186128       0.00209834
Al       6.74965175       1.99325974      12.37589493        5       0.00222009       0.01192830      -0.01001893
Al       9.61282763       2.00189335      12.36820586        5       0.00122727       0.00852253      -0.01044010
Al       2.44281982       4.48011581      12.37300299        5       0.00556016      -0.00045907       0.00068126
Al       5.30824270       4.48855510      12.36141395        5       0.00498788      -0.00083496       0.00622957
Al       8.16987060       4.49199733      12.35604264        5       0.00658540      -0.00332349      -0.00104257
Al      11.03413789       4.48360163      12.37872934        5      -0.00497935      -0.00102200      -0.00146858
Al       3.87855107       6.95864871      12.36363881        5       0.00790976       0.00268320      -0.00146545
Al       6.74286779       6.96093055      12.35454041        5       0.00320772       0.00355218       0.00187820
Al       9.60466455       6.96184699      12.38847573        5      -0.00828912       0.00147261      -0.02174691
Al      12.47082854       6.96013472      12.37245719        5      -0.00276323       0.00304672      -0.01186398
Al       5.31794432       9.44146165      12.37377430        5       0.00060353      -0.00765202      -0.01845609
Al       8.17574563       9.44514154      12.37721812        5       0.00929640      -0.02102486      -0.01347486
Al      11.04358464       9.43580517      12.37735190        5      -0.00033630      -0.00083023      -0.02222946
Al      13.90426071       9.44049880      12.36787439        5       0.00503386       0.00032842      -0.00179659
Al       1.11329378       0.29660216      14.65291053        4       0.00099597      -0.00316698       0.02265790
Al       3.98619232       0.29694706      14.65942467        4      -0.00420360       0.00050837       0.00502768
Al       6.84001985       0.28868400      14.65738054        4       0.00543513       0.00727687       0.00431532
Al       9.70131136       0.31391278      14.63717238        4       0.00244927      -0.01000058       0.02290077
Al       2.55398927       2.78775536      14.66180059        4      -0.00082943      -0.00330705       0.00476177
Al       5.41268730       2.78128171      14.64535922        4       0.00097849       0.00201232       0.01290955
Al       8.26920885       2.80292750      14.65141460        4       0.00533094      -0.01044262       0.01079526
Al      11.14004046       2.78953748      14.67508125        4      -0.00202586      -0.00071467       0.00267357
Al       3.98325329       5.26297334      14.66716380        4       0.00067705       0.00035715       0.00284957
Al       6.83969381       5.26805319      14.67195853        4      -0.00176955      -0.00254014      -0.01737501
Al       9.69172544       5.26279937      14.68589844        4       0.00545638      -0.00026999      -0.00397252
Al      12.55966257       5.26146997      14.64032975        4       0.00381120       0.00160937       0.02215372
Al       5.40764927       7.73240004      14.66377148        4      -0.00263839       0.00766234       0.00656656
Al       8.26173708       7.73137336      14.68787945        4       0.00222016       0.00864331      -0.00661532
Al      11.12999495       7.74600413      14.65335433        4       0.00282117      -0.00438350       0.01328946
Al      13.98484530       7.73340895      14.64181673        4       0.01615351       0.00603315       0.02381289
Al       2.67143994       1.05412103      16.95960232        3      -0.00432933       0.00018402      -0.00357589
Al       5.53728669       1.06595758      16.95628776        3       0.00020382       0.00645417      -0.01401474
Al       8.40559592       1.07209266      16.95094621        3       0.00146972       0.00141995      -0.02061670
Al      11.26222549       1.07051997      16.96157113        3       0.00219359      -0.00917057      -0.01662436
Al       4.09963604       3.53755941      16.96662279        3       0.00048625       0.01121929      -0.00041646
Al       6.95394096       3.57573394      16.96295047        3       0.00278812      -0.01597764      -0.00275654
Al       9.81285124       3.55902119      17.00063669        3      -0.00363501       0.00161857      -0.02958993
Al      12.68537382       3.55123095      16.95787964        3       0.00758034       0.01015675      -0.01392539
Al       5.53312321       6.03429817      16.98654289        3      -0.01778219       0.00508024       0.00570082
Al       8.36326969       6.02771806      16.99644252        3       0.02339785       0.01208671       0.01114055
Al      11.25516625       6.04083925      16.96673977        3      -0.00129118       0.00310362      -0.01124914
Al      14.12482028       6.03370309      16.96325219        3       0.00229644       0.00393404      -0.00323910
Al       6.95536277       8.48677271      17.00803510        3       0.00709813       0.01709529      -0.00591429
Al       9.82717847       8.50731353      16.96980163        3      -0.00004776      -0.00416628      -0.00700536
Al      12.70416863       8.52156635      16.96528229        3       0.00156515      -0.00466462      -0.00441787
Al      15.57688927       8.50956590      16.99787799        3      -0.01399529       0.00305358      -0.03270990
Al       1.30643068       1.90535140      19.19869222        2       0.00400289      -0.00126053       0.01394792
Al       4.18925074       1.85968287      19.21975523        2      -0.00953258       0.00221668       0.02574628
Al       7.06210430       1.87404140      19.19890087        2      -0.00458079       0.00222462       0.02207274
Al       9.92970812       1.85870826      19.23596487        2      -0.00170739      -0.00083634       0.00561091
Al       2.75066699       4.39518332      19.24390750        2       0.00085272      -0.00111471      -0.00396376
Al       5.61412717       4.38765425      19.26977751        2      -0.00874118       0.00065333       0.01570490
Al       8.45074322       4.37870635      19.29908791        2       0.01352312      -0.00704001      -0.01071692
Al      11.34023954       4.38043431      19.20636236        2       0.00002122      -0.00119569       0.00742649
Al       4.18550697       6.86668097      19.29236107        2      -0.00118155       0.00178008       0.00376998
Al       7.05567458       6.82411968      19.36151889        2       0.00792925       0.01211205      -0.00406020
Al       9.90666400       6.85672091      19.25563936        2      -0.00121840       0.00362835       0.01039754
Al      12.77985016       6.84964357      19.23522975        2      -0.00364712       0.00719653       0.00529390
Al       5.60924541       9.33730711      19.27924252        2      -0.00079622       0.00207064       0.00420759
Al       8.51720142       9.30411393      19.27423804        2      -0.00172875      -0.00039754       0.00959364
Al      11.34730262       9.31914490      19.23105126        2      -0.00531477       0.00182659       0.00840226
Al      14.23291998       9.34246261      19.26690965        2      -0.00103919       0.00223214       0.00277789
Al       1.45682407       0.27416700      21.44537279        1      -0.01242734       0.00114914       0.04469102
Al       4.19963168       0.29624913      22.03161555        1       0.00626928       0.00579782      -0.00649427
Al       7.07365021       0.25064021      21.52079689        1       0.00432609      -0.00189828      -0.01662711
Al      10.21898900       0.20633841      22.04164514        1      -0.00717866      -0.00018431      -0.01763376
Al       2.85723812       2.78078204      21.51123989        1      -0.01362916      -0.00740301       0.00810714
Al       5.71359467       2.72061002      21.47463679        1      -0.01561346       0.01021988       0.07959170
Al       8.63635433       2.59727900      21.50957579        1      -0.03189991       0.01470533       0.00996849
Al      11.42344911       2.79806666      21.54030549        1       0.00847116      -0.01423356      -0.03756643
Al       4.31052898       5.27490694      21.66440437        1      -0.00383378      -0.00709017       0.00660651
Al       7.28405403       5.05418757      21.77468081        1      -0.05078464       0.02091258      -0.03678873
Al      10.07627121       5.22767991      21.55961906        1      -0.02479411      -0.00952459      -0.00453405
Al      12.86929847       5.21659182      21.58261216        1       0.00747305       0.00611062      -0.00347309
Al       5.71197824       7.67554227      21.65734653        1       0.00417323       0.00171341      -0.01756204
Al       8.49655064       7.63145880      21.99934510        1      -0.00695954       0.00150573      -0.00048079
Al      11.45331560       7.66780363      21.58244134        1      -0.01267042       0.01678368       0.00096286
Al      14.29551166       7.75066566      21.62599049        1       0.00047444       0.00476148      -0.00319276
C        0.55033200       3.55097656      25.10456171        0      -0.06222423      -0.01160462      -0.01535846
C        0.46586829       2.22639496      24.67327030        0       0.10909493      -0.06557534      -0.04017669
C       -0.81232845       1.66738886      24.53336886        0       0.02616743       0.13492347       0.03999897
N       -1.20542452       0.41064256      24.08540359        0      -0.17629130       0.01511309       0.03081288
N       -2.54060517       0.39026446      24.46210544        0      -0.18025243       0.20954253       0.02424088
N       -3.07142479       1.59092001      24.75733441        0       0.20471035      -0.37340650      -0.02133703
C       -1.98431833       2.40531848      24.88139441        0       0.02517543      -0.19739534      -0.02315581
C       -1.88824923       3.74220868      25.31141738        0       0.14341415       0.14602771      -0.01297359
C       -0.61923349       4.30105858      25.40466805        0       0.00592525      -0.11631529       0.01492937
H        1.53321146       4.02076769      25.18453758        0      -0.01059155       0.00741956      -0.00328963
H        1.35411772       1.62292542      24.44869841        0      -0.07045350       0.10274673       0.01538706
H       -3.14735425      -0.37937292      24.16284347        0       0.01053915       0.00926038      -0.00379497
H       -2.78725407       4.32266005      25.51728618        0      -0.00750912      -0.00752107       0.00786700
H       -0.51073406       5.33571438      25.72910419        0       0.01310269       0.04143597      -0.01334179
