110
Lattice="11.45512985522207 0.0 0.0 5.727564927611035 9.92043345827187 0.0 0.0 0.0 31.691342951089922" Properties=species:S:1:pos:R:3:tags:I:1:forces:R:3 energy=-462.114013671875 free_energy=-462.114013671875 stress="0.004923414438962936 2.120155841112137e-06 -1.387670636177063e-07 2.120155841112137e-06 0.004964910913258791 1.1296942830085754e-06 -1.387670636177063e-07 1.1296942830085754e-06 0.005031868815422058" pbc="T T F"
Al       2.86368747       0.99590649       9.97743331        6      -0.00365955       0.00426462      -0.00366882
Al       5.70522005       1.02496690       9.95448756        6       0.00161731      -0.00037332      -0.00118736
Al       8.57451942       1.00331318       9.98360038        6      -0.00043738       0.00294719      -0.00050427
Al      11.43845413       1.02424220       9.96463126        6      -0.00086239      -0.00047073      -0.00219965
Al       4.28918652       3.49038879      10.03215860        6       0.00287184       0.00184798      -0.02557281
Al       7.17448974       3.48457872      10.05323517        6      -0.00660528       0.00337622      -0.02715237
Al      10.03677429       3.49662584       9.95873574        6      -0.00379113       0.00136614      -0.00069785
Al      12.89290494       3.48325745      10.00625086        6      -0.00199219       0.00238579      -0.00657250
Al       5.73059500       5.96401667      10.01958272        6      -0.00230354       0.00236455      -0.00982551
Al       8.59028047       5.97708077      10.04146175        6      -0.00058148       0.00085881      -0.00613339
Al      11.44992881       5.97316653       9.91719782        6      -0.00041148       0.00262018       0.00320886
Al      14.31672843       5.96305323      10.01451999        6      -0.00125080       0.00451146      -0.00909067
Al       7.14052491       8.45405072      10.03738912        6      -0.00240785       0.00315717      -0.01587119
Al      10.00489926       8.45605213       9.89036926        6      -0.00006234       0.00248916       0.00381790
Al      12.86846121       8.44218588       9.94580752        6      -0.00037530       0.00324333       0.00254191
Al      15.73669491       8.44893514      10.02400714        6      -0.00098700       0.00158701      -0.01029018
Al       1.40325218       1.81573474      12.34319953        5      -0.01645108       0.05748102       0.00089861
Al       4.26177256       1.81647874      12.34875128        5       0.00524693       0.01352004       0.01050487
Al       7.12140890       1.82787208      12.36977297        5       0.00976674       0.00470882      -0.02750817
Al       9.98543230       1.83803980      12.35006629        5       0.00338904       0.02282969      -0.02027352
Al       2.83942577       4.31091791      12.35796551        5      -0.00154673       0.00162126       0.00827440
Al       5.70952638       4.32087039      12.36587453        5      -0.00617319      -0.00051635       0.01203751
Al       8.56139907       4.33426541      12.37180026        5       0.01972569      -0.00654416      -0.00039279
Al      11.42274790       4.33134689      12.32507270        5      -0.00158354      -0.00893886       0.00821500
Al       4.25980313       6.79465864      12.37559214        5       0.00867263       0.00663371      -0.00058614
Al       7.13110591       6.81838937      12.36666891        5       0.00138257       0.00219637       0.02170104
Al      10.01528280       6.81219583      12.36435426        5      -0.02543281       0.00204451      -0.04501493
Al      12.85298912       6.79856912      12.34206288        5      -0.00448202       0.01433846      -0.03929190
Al       5.69291429       9.29213453      12.36914796        5      -0.00695937      -0.01164486      -0.01197419
Al       8.56871836       9.28793449      12.37075225        5       0.01253155      -0.03677858      -0.04969988
Al      11.42460353       9.27969517      12.34920572        5      -0.00314506      -0.01082250      -0.06463954
Al      14.28009102       9.27886006      12.34645253        5      -0.00241023       0.00299567       0.00032560
Al       1.37149280       0.19961946      14.61672004        4      -0.00207626      -0.00564865       0.04733705
Al       4.23956285       0.18211729      14.65007486        4      -0.00267981       0.00423928       0.00225653
Al       7.09194812       0.18528880      14.64345802        4       0.01302244       0.00806279       0.00872913
Al       9.95360423       0.20723632      14.62305479        4       0.00107614      -0.00834239       0.03674547
Al       2.80125954       2.67875258      14.64323149        4      -0.00221876      -0.00110103       0.00435965
Al       5.66327214       2.66131885      14.63456440        4      -0.00174147       0.00610809       0.00511864
Al       8.52269429       2.68800395      14.63682104        4       0.00730940      -0.00667168       0.01945364
Al      11.38666319       2.69483946      14.62718893        4       0.00330378      -0.00725321       0.00926112
Al       4.24302291       5.13517436      14.65755646        4      -0.00612158       0.01337572       0.00490252
Al       7.09250985       5.17825011      14.64983563        4      -0.00808798      -0.00330724      -0.01411506
Al       9.95541780       5.15502209      14.66142797        4       0.01551510       0.01052311      -0.01222961
Al      12.82202647       5.15405356      14.59784296        4       0.00501756      -0.00005564       0.04268929
Al       5.63606542       7.64802982      14.66782213        4       0.01993799       0.00765675      -0.00030507
Al       8.54096292       7.62697118      14.66744574        4      -0.02891844       0.02441752      -0.02967363
Al      11.41302801       7.63801430      14.63535067        4      -0.00901342      -0.00522405       0.02060131
Al      14.24334486       7.62681922      14.62389309        4       0.02120877       0.01120927       0.04290131
Al       2.74998005       1.04422281      16.95697798        3      -0.00236272      -0.00902296      -0.01465186
Al       5.60591782       1.03558356      16.94678511        3       0.00892257       0.00277088      -0.01609396
Al       8.49270365       1.04249738      16.95715793        3       0.00069473       0.00089712      -0.02436208
Al      11.35049699       1.04205511      16.94364757        3      -0.00014377      -0.00863134      -0.01490968
Al       4.18573040       3.50800592      16.96681054        3      -0.00122930       0.01933955      -0.00893479
Al       7.03729675       3.54881770      16.90840930        3       0.00849868      -0.02424975       0.04114204
Al       9.91094505       3.54425848      16.97266217        3      -0.00738639      -0.01420412      -0.03002161
Al      12.75814164       3.52519235      16.95729994        3       0.01946617       0.01335470      -0.02656093
Al       5.62265994       6.03220194      16.97031693        3      -0.02701414      -0.02560326       0.00612590
Al       8.44910970       6.00804650      16.94678871        3       0.04260770       0.01813011       0.02421714
Al      11.36176098       6.00522726      16.95897824        3      -0.00109645       0.00811850      -0.02555630
Al      14.21887257       6.00452196      16.95214980        3       0.00053121       0.00196823       0.00340107
Al       7.03357032       8.47323420      16.98671755        3       0.01973296       0.02557892      -0.02055648
Al       9.90093144       8.47203886      16.95250893        3       0.00925587       0.00430032      -0.00662678
Al      12.79320725       8.49452378      16.96095538        3       0.00075402      -0.00780585      -0.01150285
Al      15.66113799       8.47250535      17.02510433        3      -0.02741522       0.01188220      -0.06801078
Al       1.29769625       1.90506714      19.19982311        2       0.01047589      -0.00330005       0.01523252
Al       4.16785429       1.86867500      19.23418429        2      -0.00352207       0.01019551       0.01871389
Al       7.03372462       1.90352912      19.16602539        2       0.00492824       0.00456062       0.01855866
Al       9.92750456       1.87980093      19.21611950        2      -0.01107445      -0.00478011       0.00544272
Al       2.74390191       4.38372705      19.26007586        2      -0.00052570       0.00424151      -0.00926498
Al       5.58706450       4.41171796      19.24175777        2       0.00529679       0.01130076       0.01773122
Al       8.43434684       4.41557940      19.22589687        2       0.02169455      -0.01732772      -0.00259838
Al      11.31252255       4.38424588      19.23283397        2       0.00633313      -0.00021152      -0.00679548
Al       4.16167355       6.86330857      19.33715915        2       0.00188226      -0.00219801       0.02692384
Al       6.99858558       6.85904594      19.31674257        2       0.02166295       0.00964473       0.01148224
Al       9.89612998       6.83877987      19.20844377        2      -0.00577844       0.00985222       0.02048679
Al      12.77059774       6.86667669      19.22865756        2      -0.00231741       0.00206929      -0.00666500
Al       5.58791989       9.33510555      19.29640385        2      -0.00200706      -0.00281802       0.00751471
Al       8.46698587       9.32658413      19.25081857        2       0.00380745      -0.00296071       0.00470947
Al      11.30117987       9.32690046      19.21455935        2       0.00634834       0.00124518       0.01198882
Al      14.19363755       9.34331471      19.25322341        2       0.00125151       0.00716306      -0.00136491
Al       1.30480195       0.29537659      21.49078576        1      -0.02730265      -0.00574438       0.07513238
Al       4.10187721       0.27364635      21.70482641        1       0.01974104       0.01424194      -0.01015146
Al       6.93982131       0.30191496      21.46001996        1       0.01785860      -0.00110636      -0.01386901
Al       9.85637727       0.29465330      21.79350829        1      -0.01312254       0.00890640       0.00062015
Al       2.77823023       2.77883083      21.54629687        1      -0.02414836      -0.01349817       0.01953249
Al       5.63775571       2.80304410      21.43280791        1      -0.02899305      -0.03350316       0.17007770
Al       8.51824196       2.71447575      21.42191325        1      -0.04845937       0.04168606       0.00368995
Al      11.32704432       2.74570962      21.52149274        1       0.00727862      -0.00239637      -0.03984046
Al       4.09729091       5.28439283      21.83546581        1      -0.00713727      -0.01499172       0.01504881
Al       7.14395728       5.15952695      21.63917532        1      -0.08226968       0.04301639      -0.03687135
Al       9.94646107       5.23973905      21.58270181        1      -0.04880558      -0.01096813      -0.02988828
Al      12.69891613       5.23156866      21.54107504        1       0.03512986       0.00435935       0.01000130
Al       5.54543115       7.74681673      21.86497366        1      -0.00477310       0.01173739       0.00436115
Al       8.41720589       7.68498962      21.64443367        1       0.00123124       0.01150750      -0.00691395
Al      11.26811986       7.72786208      21.54902692        1       0.00535678       0.00565982       0.00294829
Al      14.08722750       7.76173431      21.64254091        1       0.01631407       0.00117311      -0.00464662
C       -0.89281507       4.29332907      25.16291872        0      -0.11176568      -0.08360338       0.00249259
C       -0.80412665       2.96433938      24.76515776        0       0.16382812      -0.13826358      -0.03895311
C       -1.99882189       2.21879994      24.68857631        0      -0.09302016       0.22501811       0.11071792
N       -2.20803449       0.90931206      24.37643694        0      -0.25417674      -0.02535749       0.01014569
N       -3.52958329       0.74666594      24.63762929        0      -0.18743499       0.35012612       0.04334536
N       -4.22754113       1.87474730      24.93181978        0       0.33508483      -0.58444637      -0.06368689
C       -3.26334192       2.82300745      25.01897812        0       0.10660210      -0.32941350      -0.02563128
C       -3.33767675       4.16247980      25.43706230        0       0.24943495       0.25976649      -0.00587814
C       -2.14556386       4.86984615      25.52918473        0      -0.03147572      -0.20474048      -0.03570120
H        0.00676643       4.91028487      25.18784634        0       0.01548887       0.00637736       0.00251657
H        0.14809754       2.46224016      24.55209691        0      -0.09210987       0.14848183       0.03303030
H       -4.01419557      -0.09697853      24.31739457        0       0.02588136       0.01424899      -0.01379459
H       -4.29869124       4.62639437      25.65777262        0      -0.02239023      -0.00974811       0.02026296
H       -2.14742723       5.88774458      25.90982190        0      -0.02094745       0.13068467      -0.01869630
