110
Lattice="11.45512985522207 0.0 0.0 5.727564927611035 9.92043345827187 0.0 0.0 0.0 31.691342951089922" Properties=species:S:1:pos:R:3:tags:I:1:forces:R:3 energy=-461.97833251953125 free_energy=-461.97833251953125 stress="0.004374201875180006 2.7883797883987427e-06 -3.343448042869568e-07 2.7883797883987427e-06 0.0044308798387646675 -1.3909302651882172e-06 -3.343448042869568e-07 -1.3909302651882172e-06 0.004195209126919508" pbc="T T F"
Al       2.44155876       1.22087801      10.03563833        6       0.00150661      -0.00144544      -0.00266859
Al       5.30091871       1.22289966      10.01639233        6       0.00304435      -0.00186590      -0.00284344
Al       8.16135778       1.23463451      10.01338438        6       0.00293334      -0.00156510      -0.00152172
Al      11.02596592       1.23694103      10.02108770        6       0.00211839      -0.00163396      -0.00082943
Al       3.85835778       3.70056407      10.03687115        6       0.00376965      -0.00150156      -0.00399068
Al       6.71920364       3.71203971      10.01935611        6       0.00277690      -0.00111214      -0.00050332
Al       9.59062547       3.71638206      10.02807311        6       0.00148369      -0.00067316       0.00049876
Al      12.45419861       3.70539962      10.03018778        6       0.00241960      -0.00135041      -0.00154456
Al       5.27121516       6.18805533      10.01651294        6       0.00301957      -0.00067092       0.00029708
Al       8.12884296       6.19150070      10.00114940        6       0.00410000      -0.00102639       0.00056032
Al      11.00792436       6.18423000      10.03263910        6       0.00187986      -0.00020384       0.00049477
Al      13.87303380       6.18075353      10.03205609        6       0.00330260      -0.00087282      -0.00235808
Al       6.70731635       8.67490146       9.99367708        6       0.00378425      -0.00188111       0.00003708
Al       9.58315010       8.66165294      10.01239163        6       0.00200503      -0.00087279       0.00049155
Al      12.45221364       8.66334662      10.01582860        6       0.00218916      -0.00066183      -0.00058987
Al      15.31194084       8.67190186      10.01293128        6       0.00173154      -0.00012521       0.00110349
Al       1.11840804       1.98076474      12.39891885        5      -0.00096071       0.01254675      -0.01063442
Al       3.98470518       1.98935831      12.38308887        5       0.00352664       0.00045244      -0.00090407
Al       6.84777824       1.98204477      12.38453889        5       0.00146539       0.00881897      -0.00629892
Al       9.70619781       1.98597206      12.39519834        5       0.00488760       0.00648212      -0.00879406
Al       2.54707750       4.47625314      12.39589121        5       0.00773100      -0.00574553      -0.00704275
Al       5.41029661       4.47860510      12.39125867        5       0.00432367      -0.00179327       0.00221616
Al       8.26791828       4.47902085      12.39386089        5       0.00609711      -0.00409156      -0.00359966
Al      11.13963708       4.47223774      12.39670389        5      -0.00534432      -0.00270738      -0.00071808
Al       3.97920123       6.95477292      12.39456113        5       0.00611366       0.00066060      -0.00120720
Al       6.84188908       6.95492949      12.38759940        5       0.00175815       0.00133420       0.00249777
Al       9.70335398       6.95059365      12.40337209        5      -0.00461303       0.00095253      -0.01714044
Al      12.57332383       6.94916234      12.39288938        5      -0.00293804       0.00397097      -0.00976637
Al       5.41707168       9.43042436      12.39171536        5      -0.00044139      -0.00622614      -0.01433265
Al       8.27409178       9.43261960      12.38515311        5       0.00920856      -0.01450645      -0.00843252
Al      11.14421418       9.42603329      12.38541771        5      -0.00311922      -0.00061234      -0.01996536
Al      14.00321382       9.42992245      12.38503259        5       0.00846412      -0.00230347      -0.00909142
Al       1.20397147       0.27974233      14.66287833        4      -0.00130583      -0.00397626       0.01874593
Al       4.06862921       0.28320231      14.65769031        4      -0.00056101      -0.00046000       0.00409793
Al       6.92464414       0.27043659      14.66256598        4       0.00614049       0.00658415       0.00568690
Al       9.79183226       0.28391952      14.65995073        4      -0.00100469      -0.00756780       0.01890744
Al       2.64900867       2.77047670      14.66375939        4      -0.00232946      -0.00184067       0.00539921
Al       5.50630876       2.76513923      14.65878705        4      -0.00131089       0.00034813       0.00819901
Al       8.35388895       2.77546125      14.66973390        4       0.00466229      -0.00983150       0.00986329
Al      11.23110750       2.76408251      14.68178240        4      -0.00257839      -0.00051787       0.00199286
Al       4.07166917       5.24936008      14.68893516        4      -0.00026058      -0.00032872       0.00116208
Al       6.92129723       5.25380606      14.69699963        4       0.00021277      -0.00355774      -0.01433535
Al       9.78165520       5.24122618      14.69234452        4       0.00220749       0.00069306      -0.00020796
Al      12.65035433       5.24430039      14.66110095        4       0.00472956       0.00089760       0.01558136
Al       5.49283532       7.71561815      14.69166621        4      -0.00237928       0.00692378       0.00389842
Al       8.34560727       7.71803261      14.69827790        4       0.00536407       0.00667127      -0.00971990
Al      11.21705697       7.73021801      14.66025250        4       0.00177935      -0.00433807       0.01301818
Al      14.07431589       7.71845539      14.66934722        4       0.01300875       0.00390941       0.01855676
Al       2.73806751       1.03355541      16.95218115        3      -0.00469751      -0.00182573      -0.00767918
Al       5.60302729       1.03585410      16.95603118        3      -0.00046639       0.00748548      -0.01559960
Al       8.46479895       1.02713513      16.96539509        3      -0.00018970       0.00013766      -0.01992782
Al      11.32063290       1.02189845      16.96449877        3       0.00029121      -0.00742981      -0.01543159
Al       4.17387823       3.51455558      16.97088158        3       0.00015992       0.00915227      -0.00138977
Al       7.01898758       3.54668035      16.97540099        3       0.00148615      -0.01381865      -0.00444927
Al       9.87615722       3.51819653      16.98708898        3      -0.00158621       0.00418990      -0.02155297
Al      12.75679345       3.51649394      16.95579440        3       0.00321473       0.00626099      -0.01138628
Al       5.59177763       6.00715626      17.01695156        3      -0.01843726       0.00662984       0.00332423
Al       8.43155733       6.00863835      16.99265637        3       0.01479833       0.01051036       0.00761766
Al      11.32414083       6.01465178      16.96011796        3      -0.00163339       0.00050677      -0.00877249
Al      14.19281243       5.99914582      16.98536559        3       0.00218718       0.00537031      -0.00392921
Al       7.01210539       8.46267226      17.01277538        3       0.00446479       0.01107605      -0.00367227
Al       9.89540099       8.48516359      16.96843133        3      -0.00413033      -0.00110595      -0.00630084
Al      12.76068210       8.48854852      16.97842263        3       0.00254239      -0.00295333      -0.00290593
Al      15.62387969       8.45930826      17.02293908        3      -0.00813861       0.00185696      -0.02472631
Al       1.33943886       1.83439177      19.18604661        2       0.00415929       0.00004151       0.01481010
Al       4.24483699       1.83314216      19.21241538        2      -0.01050435       0.00226322       0.02600182
Al       7.10988411       1.84156533      19.20234794        2      -0.00605590       0.00325485       0.01759711
Al       9.96496358       1.81528450      19.21745463        2      -0.00065287       0.00040157       0.01092162
Al       2.78946437       4.33118487      19.23009663        2       0.00044306       0.00000063       0.00318607
Al       5.66589397       4.35074236      19.28469172        2      -0.01072514       0.00387885       0.02663962
Al       8.50184914       4.35750218      19.26699791        2       0.01144305      -0.00325574      -0.00322490
Al      11.38021477       4.34422491      19.18494753        2      -0.00047895       0.00019102       0.01576737
Al       4.24670162       6.78199260      19.41033255        2       0.00087262       0.00184809       0.00167318
Al       7.06978431       6.78866945      19.34719934        2       0.00952334       0.01179444       0.00723886
Al       9.96929974       6.82462254      19.23207576        2      -0.00084061       0.00319373       0.01228793
Al      12.84175946       6.81526468      19.24101919        2      -0.00525835       0.00496941       0.01034534
Al       5.63506183       9.26374974      19.31088032        2      -0.00129211       0.00291872       0.00459007
Al       8.53573066       9.29491085      19.23891337        2       0.00050954      -0.00185178       0.01112859
Al      11.39927318       9.30214129      19.24104240        2      -0.00681234      -0.00033043       0.01458886
Al      14.28003982       9.28269003      19.29622864        2      -0.00054021       0.00367128       0.00631780
Al       1.43261246       0.20366922      21.48591110        1      -0.00975569       0.00671678       0.03148197
Al       4.22694104       0.22281905      22.01825485        1       0.00628746       0.00296671      -0.01405211
Al       7.14044804       0.23674959      21.52116946        1       0.00034595      -0.00026078      -0.01654208
Al      10.17280144       0.21539671      22.06648882        1      -0.00740765      -0.00169105      -0.01419119
Al       2.86435121       2.68984105      21.50502589        1      -0.00407604      -0.00727273      -0.00014094
Al       5.74804207       2.70852375      21.49303267        1      -0.00872490       0.00720581       0.04814753
Al       8.65499369       2.63225262      21.46101409        1      -0.02337280       0.00838741       0.00774993
Al      11.43688561       2.73317652      21.47714871        1       0.00973210      -0.01263541      -0.02789793
Al       4.20965026       5.11457688      22.00008851        1       0.00237332      -0.00129519      -0.00471005
Al       7.34478663       5.08164058      21.76933064        1      -0.03628043       0.01774173      -0.03174233
Al      10.13967792       5.19600593      21.57611843        1      -0.02822878      -0.00528035      -0.00631550
Al      12.88858673       5.15955912      21.54941765        1       0.00821601       0.00849592      -0.00665573
Al       5.72294580       7.66151169      22.04604862        1       0.00836182      -0.00408754      -0.02379461
Al       8.61094253       7.63674931      21.54741800        1      -0.00919351      -0.00108535       0.00744419
Al      11.53555633       7.65512699      21.56970568        1      -0.01507190       0.01457248       0.00121782
Al      14.37329587       7.68438394      21.67804038        1      -0.00467221       0.00740137      -0.00146491
C       -0.15350381       3.96181720      24.89971649        0      -0.04241715      -0.00891534      -0.00905566
C       -0.03708285       2.60874398      24.57183197        0       0.08014948      -0.05316930      -0.03185299
C       -1.21643015       1.84881453      24.50910009        0      -0.00571526       0.09932508       0.03368367
N       -1.43574787       0.53435502      24.11738951        0      -0.13145141       0.00514277       0.01940812
N       -2.74653525       0.32903493      24.51763939        0      -0.11410837       0.17096819       0.01980743
N       -3.42554863       1.44381200      24.82260417        0       0.12937513      -0.25132844      -0.01433320
C       -2.47553706       2.41881523      24.86725693        0       0.03882870      -0.15790729      -0.00787032
C       -2.58417490       3.78734358      25.19094221        0       0.07736112       0.08039217      -0.00399223
C       -1.41817940       4.54273265      25.18808256        0       0.01462903      -0.06894444       0.01542146
H        0.74308537       4.58645098      24.89437819        0      -0.00921602       0.00371071       0.00507605
H        0.93049994       2.13501771      24.37336823        0      -0.04795426       0.07406500       0.01344583
H       -3.24028057      -0.52190054      24.23158931        0       0.01661605       0.01694303      -0.00792513
H       -3.56010310       4.23299996      25.38654059        0       0.00781541      -0.00856401       0.00667386
H       -1.47126782       5.61229030      25.39653560        0       0.01930379       0.01598595      -0.00437256
