110
Lattice="11.45512985522207 0.0 0.0 5.727564927611035 9.92043345827187 0.0 0.0 0.0 31.691342951089922" Properties=species:S:1:pos:R:3:tags:I:1:forces:R:3 energy=-461.89141845703125 free_energy=-461.89141845703125 stress="0.0035035961773246527 1.6088597476482391e-06 -5.373731255531311e-07 1.6088597476482391e-06 0.0035850657150149345 6.360933184623718e-07 -5.373731255531311e-07 6.360933184623718e-07 0.0035646697506308556" pbc="T T F"
Al       2.26547658       0.69976165      10.04008200        6       0.00046414      -0.00008813       0.00047446
Al       5.12691791       0.70181660      10.03383645        6       0.00051210      -0.00015118       0.00078223
Al       8.00028143       0.69779788      10.02568552        6       0.00021584      -0.00031448       0.00064774
Al      10.86247476       0.69743854      10.03527654        6       0.00028497      -0.00026976       0.00061925
Al       3.69809327       3.18217335      10.02300508        6       0.00045165      -0.00033971       0.00124365
Al       6.56959119       3.17689222      10.01320201        6       0.00024431      -0.00029544       0.00115991
Al       9.43403513       3.18018259      10.02544304        6       0.00011958      -0.00048337       0.00056244
Al      12.29086675       3.17991339      10.03747277        6       0.00054180      -0.00029816       0.00067172
Al       5.13543747       5.65630727      10.02042936        6       0.00039326      -0.00055976       0.00017587
Al       7.99955409       5.65904998      10.02553136        6       0.00017209      -0.00055573       0.00003236
Al      10.85934093       5.66363727      10.03403309        6       0.00035223      -0.00044200       0.00026404
Al      13.71985298       5.66042822      10.03105335        6       0.00055264      -0.00030062       0.00069294
Al       6.56552349       8.13773145      10.03884399        6       0.00040571      -0.00043231      -0.00069222
Al       9.42609487       8.14044185      10.04178248        6       0.00038260      -0.00023954      -0.00048948
Al      12.29221920       8.14257561      10.03733923        6       0.00029372      -0.00025896      -0.00021929
Al      15.15925665       8.13603639      10.02591270        6       0.00034120      -0.00039676       0.00002974
Al       0.86695355       1.51576577      12.39390257        5       0.00062468      -0.00066794       0.00393616
Al       3.72670895       1.51893130      12.39705991        5       0.00271100      -0.00322194      -0.00449033
Al       6.59077737       1.52072704      12.38097620        5       0.00310441      -0.00391485      -0.00043721
Al       9.45732739       1.51709703      12.39041234        5      -0.00018200      -0.00092507      -0.01116343
Al       2.30181252       3.99080892      12.39026356        5      -0.00209124       0.00128654      -0.00153389
Al       5.16445738       3.99286123      12.37826768        5       0.00071072      -0.00092119       0.00133946
Al       8.02365131       3.99586204      12.37850851        5       0.00190164      -0.00322407       0.00001185
Al      10.88606556       3.99427635      12.38880965        5       0.00322574      -0.00060247      -0.00148891
Al       3.73756023       6.47095893      12.37812387        5      -0.00205368       0.00000276       0.00116399
Al       6.59662438       6.47138629      12.38467991        5       0.00149862      -0.00010084      -0.00443425
Al       9.45289476       6.47266726      12.39088292        5       0.00448791       0.00139998      -0.00539839
Al      12.32108072       6.47198353      12.38828873        5       0.00015424       0.00110372      -0.00219503
Al       5.16538160       8.95588334      12.38826280        5       0.00074608      -0.00000838      -0.00004694
Al       8.02385330       8.95471362      12.39962829        5       0.00215772       0.00140337      -0.00286459
Al      10.88416113       8.95898623      12.38816314        5       0.00301553      -0.00161418       0.00290044
Al      13.75929768       8.95650955      12.37915492        5      -0.00272706      -0.00000034       0.00244776
Al       0.87785187      -0.14734498      14.68066904        4       0.00096822      -0.00093979      -0.00023196
Al       3.73484319      -0.14175361      14.67648240        4       0.00242827      -0.00188256      -0.00091383
Al       6.60276619      -0.14394767      14.65272296        4       0.00085453      -0.00017522       0.00262169
Al       9.47173075      -0.14645357      14.65844278        4       0.00066801      -0.00057176       0.00265596
Al       2.30785445       2.33177835      14.68204731        4       0.00140687      -0.00097292      -0.00290567
Al       5.16922347       2.33665304      14.66771266        4       0.00223166      -0.00045147      -0.00017716
Al       8.03278836       2.33685251      14.66114228        4       0.00043067      -0.00037794      -0.00150408
Al      10.89654915       2.33255729      14.66647410        4       0.00125639      -0.00020596       0.00188735
Al       3.74464701       4.80846605      14.65988849        4       0.00094873       0.00007330       0.00276200
Al       6.60249559       4.81135577      14.65968312        4       0.00132116      -0.00058991       0.00171252
Al       9.46173662       4.81401247      14.66260607        4       0.00139200      -0.00162867      -0.00279006
Al      12.33010558       4.80881172      14.66482707        4       0.00105095      -0.00079412      -0.00137355
Al       5.18307431       7.28707355      14.65150505        4      -0.00030084       0.00067331       0.00560713
Al       8.03305747       7.29379246      14.66908338        4       0.00085065      -0.00005269       0.00269088
Al      10.89373002       7.29383191      14.66187221        4       0.00094303       0.00002005       0.00091961
Al      13.76830032       7.29143109      14.64716552        4       0.00130558      -0.00009491       0.00316222
Al       2.32373334       0.65656819      16.98353308        3       0.00058350      -0.00043857       0.00036222
Al       5.18582136       0.67494152      16.95527247        3       0.00193372      -0.00488609      -0.00046473
Al       8.05091282       0.67426625      16.93695894        3       0.00026481      -0.00448061       0.00237917
Al      10.92168198       0.66137696      16.95893992        3       0.00035063      -0.00161526       0.00175304
Al       3.76714606       3.13813163      16.97100119        3       0.00064264       0.00120787      -0.00037066
Al       6.62056109       3.14521238      16.96405648        3       0.00030576       0.00006264       0.00282395
Al       9.47638780       3.14442180      16.94916797        3       0.00088568      -0.00011660       0.00325964
Al      12.34802781       3.12849122      16.95870534        3       0.00072816       0.00007624       0.00206536
Al       5.20254092       5.61269951      16.95505665        3      -0.00041614      -0.00110226       0.00270714
Al       8.04976046       5.61863845      16.95501853        3       0.00012447      -0.00046876       0.00365683
Al      10.90533708       5.61592527      16.94247578        3       0.00177091       0.00085121       0.00250170
Al      13.78145811       5.61135026      16.93722182        3       0.00173067       0.00031198       0.00294821
Al       6.62545338       8.09454081      16.97699353        3      -0.00009480      -0.00063280      -0.00000104
Al       9.46993675       8.10417143      16.96565023        3       0.00338822      -0.00056621      -0.00233889
Al      12.34407756       8.09885133      16.93041058        3       0.00153901       0.00047107       0.00346014
Al      15.22593681       8.09766241      16.93824413        3      -0.00036233      -0.00084074       0.00105891
Al       0.90317167       1.48248083      19.25227711        2       0.00033922      -0.00077310      -0.00507879
Al       3.78208504       1.49861579      19.22468122        2       0.00109559      -0.00094940      -0.00504585
Al       6.63567611       1.49267870      19.21630175        2       0.00071668       0.00178958      -0.00345310
Al       9.49954570       1.49115612      19.18728774        2      -0.00064946       0.00062229      -0.00175938
Al       2.33835387       3.96975168      19.19435767        2       0.00011925      -0.00073766      -0.00315734
Al       5.22566293       3.96258223      19.27240267        2       0.00143977       0.00098220      -0.00168299
Al       8.06665938       3.96817467      19.23913535        2       0.00023145       0.00108512      -0.00186042
Al      10.93580443       3.97225853      19.19196820        2       0.00051299       0.00083522      -0.00072117
Al       3.78075621       6.43865556      19.18498291        2       0.00029067      -0.00093282      -0.00210628
Al       6.64406366       6.41759736      19.23566452        2       0.00064692      -0.00103634      -0.00179849
Al       9.49200203       6.44044194      19.20661757        2       0.00071728      -0.00139509      -0.00309176
Al      12.35591500       6.44554557      19.18828884        2       0.00126437      -0.00124231      -0.00373195
Al       5.21080757       8.93587711      19.22371094        2       0.00102904       0.00077131      -0.00324473
Al       8.05862517       8.93472647      19.26612476        2       0.00029126      -0.00084294      -0.00596134
Al      10.93846078       8.93106591      19.18270590        2       0.00006287      -0.00136036      -0.00675520
Al      13.79820105       8.92906524      19.16334468        2       0.00012558       0.00037846      -0.00269878
Al       0.84235232      -0.17827996      21.83932191        1      -0.00111572       0.00049592       0.00535025
Al       3.77421764      -0.14028408      21.56301686        1      -0.00113208      -0.00182223      -0.00036555
Al       6.65234796      -0.16492671      21.50183908        1      -0.00160080       0.00082509       0.00290562
Al       9.48209221      -0.16467134      21.51334387        1      -0.00084435       0.00584093       0.00442277
Al       2.30595562       2.34033807      21.55873495        1      -0.00048922      -0.00157181      -0.00208161
Al       5.20613707       2.31937176      21.65319718        1      -0.00162286       0.00053788       0.00085333
Al       8.07345746       2.33765299      21.55439352        1      -0.00152563       0.00369428       0.00497657
Al      10.92550530       2.35070902      21.53821155        1       0.00009801       0.00035458      -0.00199292
Al       3.73257228       4.80203691      21.49355601        1      -0.00047245       0.00061420       0.00264357
Al       6.57853809       4.80077684      21.88055696        1      -0.00068575       0.00201537      -0.00094050
Al       9.51748306       4.80828283      21.53827163        1       0.00168882       0.00150175       0.00359284
Al      12.35821297       4.83003704      21.54923503        1       0.00035745      -0.00292613      -0.00146416
Al       5.19043416       7.26862275      21.50855750        1       0.00196089       0.00132239       0.00508236
Al       8.08075830       7.28614470      21.57338928        1       0.00021949       0.00073744       0.00086004
Al      10.96332542       7.27879896      21.49816893        1       0.00158705      -0.00138175       0.00346474
Al      13.79849466       7.26528593      21.43441163        1       0.00255042       0.00081536       0.00800630
C        2.45412970       6.64225883      24.77792125        0       0.03270461      -0.02032894       0.00122585
C        2.40426050       5.26196925      24.89414345        0       0.00297290       0.00738673      -0.00225296
C        1.13708060       4.66891217      25.08852792        0      -0.07335248      -0.00897057       0.00595213
N        0.78058778       3.36445282      25.19109681        0      -0.01656066      -0.01449296       0.00285902
N       -0.55578298       3.41458801      25.30291258        0       0.02576461       0.02951907      -0.00807751
N       -1.13117216       4.63059797      25.22063363        0       0.00504111      -0.02407561       0.00262102
C       -0.07050560       5.46611717      25.11468177        0       0.02229981       0.01142474      -0.00276980
C        0.01267464       6.86965680      24.96544647        0       0.00794667       0.00881230       0.00543394
C        1.27153043       7.43641560      24.82163676        0      -0.09474128       0.05165988      -0.01217282
H        3.41315645       7.13927524      24.61343724        0       0.01582493       0.00027531      -0.00483530
H        3.29585725       4.64053106      24.80331017        0       0.01630863      -0.01450257      -0.00419819
H       -1.11368723       2.56297561      25.22295821        0      -0.00908520       0.00563288      -0.00087176
H       -0.89497941       7.47439108      24.94855974        0       0.00303901       0.00147805       0.00070407
H        1.36411578       8.51676194      24.68513187        0       0.00048933      -0.00650384       0.00958436
