110
Lattice="11.45512985522207 0.0 0.0 5.727564927611035 9.92043345827187 0.0 0.0 0.0 31.691342951089922" Properties=species:S:1:pos:R:3:tags:I:1:forces:R:3 energy=-462.134033203125 free_energy=-462.134033203125 stress="0.00475448090583086 2.609100192785263e-06 -2.8219074010849e-07 2.609100192785263e-06 0.00481096375733614 -8.791685104370117e-07 -2.8219074010849e-07 -8.791685104370117e-07 0.004625086206942797" pbc="T T F"
Al       2.59399508       1.22694698       9.99118259        6       0.00100851       0.00044271       0.00212510
Al       5.45349232       1.24037834       9.99120485        6       0.00152284      -0.00099010       0.00049046
Al       8.30018419       1.26292635       9.95243382        6       0.00311849      -0.00123459       0.00214200
Al      11.17235877       1.25784791       9.98535927        6       0.00192083      -0.00107782       0.00185403
Al       4.00069653       3.70696947      10.01516222        6       0.00251610       0.00041055      -0.00102209
Al       6.86051995       3.73470805      10.00233788        6       0.00265682      -0.00107133      -0.00002156
Al       9.73514274       3.73741258       9.99104127        6       0.00132895      -0.00115593       0.00128835
Al      12.59970663       3.72207109       9.99455459        6       0.00214181      -0.00086149       0.00102841
Al       5.39886906       6.19967913      10.03129890        6       0.00434824       0.00007133      -0.00169316
Al       8.25866135       6.20937623      10.00606195        6       0.00540277      -0.00065777      -0.00041832
Al      11.13598727       6.19939295      10.03894308        6       0.00395987      -0.00021010      -0.00206121
Al      14.00570914       6.20047186      10.02642936        6       0.00403846      -0.00086928      -0.00286805
Al       6.84331839       8.69345877       9.97830691        6       0.00401755      -0.00203695       0.00124529
Al       9.72746448       8.67745179       9.99043993        6       0.00166929       0.00008113       0.00303019
Al      12.59200653       8.68468055       9.98654236        6       0.00196283      -0.00086489       0.00164401
Al      15.44600085       8.69971014      10.00177179        6       0.00382198      -0.00262313      -0.00197017
Al       1.23295081       1.98108177      12.36763025        5      -0.00502233       0.02250339      -0.01144162
Al       4.09080769       1.98287922      12.36069455        5       0.00723696       0.00531594       0.00042736
Al       6.95887464       1.97966955      12.36257873        5       0.00278762       0.01563953      -0.02156940
Al       9.81740093       1.98803771      12.36352609        5      -0.00031511       0.01451692      -0.01350219
Al       2.65938418       4.47336117      12.37530708        5       0.00273265      -0.00511035      -0.00200270
Al       5.51825080       4.48443712      12.37402536        5       0.00447953      -0.00691789       0.00757194
Al       8.37412338       4.48333421      12.37209519        5       0.01262408      -0.00732140       0.00179405
Al      11.24811778       4.47767099      12.38157071        5      -0.00995891      -0.00844938      -0.00705289
Al       4.07839649       6.95490329      12.38902230        5       0.01321201       0.00950953      -0.00004453
Al       6.95015832       6.96342053      12.38230166        5       0.00025240       0.00442300       0.00639324
Al       9.81038956       6.95955000      12.40412508        5      -0.00812540       0.00066544      -0.02248992
Al      12.68322724       6.95217546      12.39384359        5      -0.01632203       0.00785675      -0.03277778
Al       5.52964685       9.44214743      12.37678327        5      -0.00680770      -0.01775694      -0.03422953
Al       8.39056421       9.44337755      12.36862823        5       0.00519867      -0.02719593      -0.01178198
Al      11.25495182       9.42881979      12.37662808        5      -0.00387606      -0.00369197      -0.03477744
Al      14.10892020       9.42914727      12.36026695        5       0.00892194       0.00555928      -0.00855626
Al       1.28552411       0.28613444      14.63948506        4      -0.00110543      -0.00300245       0.03330051
Al       4.15729751       0.28023661      14.65885142        4      -0.00339306       0.00049518       0.00108320
Al       7.01847413       0.27386440      14.64952431        4       0.00407524       0.01260440       0.01268167
Al       9.87222824       0.29998181      14.62698424        4       0.00114959      -0.01157961       0.04223812
Al       2.73343650       2.77060474      14.65258677        4      -0.01068998      -0.00430166       0.00655913
Al       5.58138430       2.75754725      14.63449808        4       0.00313962       0.00615471       0.01991095
Al       8.42930582       2.78422388      14.64676648        4       0.01458989      -0.01426821       0.02279067
Al      11.30860895       2.76882373      14.65692534        4      -0.00521074      -0.00029674       0.00979951
Al       4.15615968       5.24659182      14.67847163        4      -0.00348835       0.00239350       0.00190529
Al       7.00510243       5.25571401      14.68642952        4      -0.00740529      -0.00058022      -0.03240369
Al       9.85272000       5.24708334      14.68981676        4       0.01800918      -0.00341740      -0.01381535
Al      12.72994921       5.23838980      14.63825169        4       0.00716496       0.00503180       0.03768690
Al       5.57237250       7.72575703      14.68228678        4      -0.00687847       0.01460062       0.00897353
Al       8.42700301       7.72423786      14.70246409        4       0.00290016       0.01443315      -0.02215018
Al      11.29984091       7.73184964      14.66994019        4       0.00186352      -0.00488136       0.00849072
Al      14.15391781       7.72479316      14.66122514        4       0.02491732       0.00575120       0.03337709
Al       2.78228099       1.03611009      16.94790353        3      -0.00187552       0.00430744      -0.00380134
Al       5.65375398       1.04531773      16.95122633        3       0.00151520       0.01290767      -0.02844392
Al       8.52409924       1.04402825      16.96269519        3       0.00033799       0.00302447      -0.04703995
Al      11.37554257       1.04118050      16.96059076        3       0.00276011      -0.01297873      -0.02982042
Al       4.21734817       3.53288638      16.95909803        3       0.00256052       0.00575686       0.00082088
Al       7.06951868       3.56527112      16.95954303        3       0.00257699      -0.03204035      -0.00462194
Al       9.93381419       3.53663731      16.99995131        3      -0.01188735      -0.00165681      -0.05110371
Al      12.79946591       3.52483932      16.95696268        3       0.01642564       0.01328419      -0.02589264
Al       5.64904616       6.02242117      17.00326197        3      -0.03052604       0.00998191       0.00826931
Al       8.47019477       6.01300031      16.99874172        3       0.04490826       0.02653388       0.01607211
Al      11.37215822       6.01551902      16.96721382        3       0.00181116       0.00215247      -0.03209718
Al      14.23646945       6.01391544      16.98123725        3       0.01017844       0.00486492      -0.01541939
Al       7.05721477       8.46825818      17.01950431        3       0.01617224       0.03070708      -0.01202746
Al       9.93603395       8.49220168      16.97686087        3       0.00325347      -0.00190425      -0.01781310
Al      12.80967626       8.50005524      16.97089078        3       0.01150325      -0.00366909      -0.00377997
Al      15.68786359       8.48424455      17.03026871        3      -0.02477419       0.00632926      -0.06285750
Al       1.38021621       1.87108398      19.19160538        2       0.00654934      -0.00220050       0.01716437
Al       4.27391272       1.86511774      19.19579056        2      -0.00963739      -0.00028329       0.03303671
Al       7.13973338       1.87015234      19.17995834        2       0.00046451       0.00166866       0.03555462
Al      10.00528200       1.83356930      19.22179480        2       0.00137423       0.00054560       0.01496995
Al       2.84445958       4.36443384      19.25898064        2      -0.00071985      -0.00031362      -0.00490977
Al       5.69867620       4.39292349      19.27646326        2      -0.01116832       0.00467603       0.02660893
Al       8.51888448       4.37286460      19.28776746        2       0.03665165      -0.00881920      -0.01091642
Al      11.42652371       4.35162328      19.20259438        2      -0.00492492       0.00118909       0.02039236
Al       4.27600274       6.84077510      19.33825987        2      -0.00373791      -0.00269360       0.00893412
Al       7.12567134       6.82538657      19.40473288        2       0.01550817       0.01567792      -0.01983961
Al       9.99594081       6.83217248      19.21970319        2      -0.00554296       0.00847386       0.02999387
Al      12.86171363       6.82711705      19.23623976        2      -0.00545949       0.01236989       0.01276995
Al       5.67270688       9.29870640      19.31927948        2       0.00176767       0.00322377       0.00221882
Al       8.57188543       9.30901399      19.24388144        2       0.00208949      -0.00290686       0.02028031
Al      11.43315139       9.32332384      19.23172291        2      -0.00700133      -0.00004148       0.00929658
Al      14.30445346       9.32940985      19.28902204        2       0.00018919       0.00474594       0.01037341
Al       1.43763630       0.23721079      21.47777552        1      -0.01070232       0.00081007       0.06388315
Al       4.22988299       0.25165597      21.83612399        1       0.00811243      -0.00393415       0.00836680
Al       7.11269342       0.27919030      21.52669117        1       0.01290297      -0.01126003      -0.02570102
Al      10.15759665       0.22510512      22.11884873        1       0.00248286       0.00360886      -0.02905795
Al       2.90958760       2.74861668      21.53375919        1      -0.01716728      -0.01532416       0.01603879
Al       5.76986762       2.74425915      21.43813042        1      -0.03000645       0.00217785       0.13737293
Al       8.68358040       2.62610278      21.46021522        1      -0.05216127       0.02205405       0.01960204
Al      11.45483488       2.72817405      21.51956438        1       0.02085792      -0.01701462      -0.06289203
Al       4.23786681       5.24557168      21.79123541        1      -0.00357413      -0.00941335       0.01652913
Al       7.32803908       5.07799837      21.77112752        1      -0.09494215       0.04602293      -0.05588881
Al      10.10653765       5.20793254      21.54303805        1      -0.03230081      -0.02102751      -0.00831467
Al      12.86635973       5.16562304      21.55189852        1       0.01309828       0.01970218       0.00910310
Al       5.75460218       7.63024337      21.77899432        1       0.00445732       0.01937782      -0.03681402
Al       8.65340375       7.62471356      21.72820198        1      -0.01605907       0.00434742      -0.01005836
Al      11.50962383       7.67457571      21.55869747        1      -0.01320490       0.01939578       0.00457984
Al      14.31810053       7.72284585      21.59434105        1       0.00775479       0.01677284       0.00902684
C       -0.87195428       4.07769628      25.10850103        0      -0.05564734      -0.05887060      -0.02097500
C       -0.51451031       2.77774600      24.73946063        0       0.14076348      -0.12120242      -0.07260019
C       -1.54222168       1.83659156      24.57149487        0      -0.01493805       0.21227725       0.07829197
N       -1.51748795       0.51013490      24.14756307        0      -0.28873166       0.00338009       0.06358592
N       -2.78948816       0.07662600      24.50762653        0      -0.24593256       0.35263127       0.03966135
N       -3.66477417       1.07059488      24.77184355        0       0.31964663      -0.56622398      -0.05000383
C       -2.88821127       2.17994041      24.89159725        0       0.04467051      -0.30431393      -0.03961356
C       -3.25242149       3.48665761      25.26283618        0       0.22287089       0.26704669      -0.00656065
C       -2.22875239       4.42459544      25.35023564        0      -0.03495155      -0.16712727       0.03082125
H       -0.09962863       4.84461689      25.19378289        0      -0.00100933      -0.00981369      -0.00486781
H        0.52376177       2.46054423      24.57951177        0      -0.09077096       0.15294068       0.03963364
H       -3.13872073      -0.81902356      24.14973902        0       0.01257150       0.01654802       0.00735406
H       -4.29595781       3.75506358      25.42813386        0       0.00305928      -0.02615072       0.00726951
H       -2.47260850       5.45151003      25.62049780        0       0.03541177       0.05363731      -0.01532882
