110
Lattice="11.45512985522207 0.0 0.0 5.727564927611035 9.92043345827187 0.0 0.0 0.0 31.691342951089922" Properties=species:S:1:pos:R:3:tags:I:1:forces:R:3 energy=-461.8353271484375 free_energy=-461.8353271484375 stress="0.004621886648237705 3.2936222851276398e-06 -1.0477378964424133e-07 3.2936222851276398e-06 0.004647703375667334 -1.5809200704097748e-06 -1.0477378964424133e-07 -1.5809200704097748e-06 0.004376276396214962" pbc="T T F"
Al       2.29887437       1.14726304      10.03151835        6       0.00134540       0.00023950      -0.00085063
Al       5.15331084       1.15170877      10.00878705        6       0.00277392       0.00014522      -0.00083819
Al       8.00836849       1.17009891       9.99556835        6       0.00348919      -0.00061387      -0.00084072
Al      10.87491264       1.17296820       9.98655492        6       0.00298488      -0.00151956       0.00018316
Al       3.70466384       3.63315694      10.01190186        6       0.00444198      -0.00057306      -0.00258592
Al       6.56002747       3.64939124       9.98237270        6       0.00342964      -0.00061279       0.00087506
Al       9.42814176       3.65619803       9.97038514        6       0.00276453      -0.00120456       0.00166044
Al      12.30016115       3.63227845      10.02174001        6       0.00356897      -0.00098950      -0.00169400
Al       5.10334983       6.12759369       9.95885217        6       0.00476958      -0.00051944       0.00198532
Al       7.96362891       6.12742335       9.95211584        6       0.00537834      -0.00068974       0.00283511
Al      10.84196815       6.11202434      10.00486954        6       0.00332295       0.00059244       0.00175213
Al      13.70764012       6.11324763       9.99687517        6       0.00431345       0.00006413      -0.00078132
Al       6.54929989       8.60819348       9.97712207        6       0.00375668      -0.00037150       0.00188956
Al       9.42157132       8.59039261      10.00192981        6       0.00363273      -0.00083653       0.00056324
Al      12.28767582       8.59638837       9.97832355        6       0.00336267      -0.00008426       0.00094545
Al      15.14715062       8.61007614       9.98510763        6       0.00421977      -0.00128341      -0.00074428
Al       1.01486097       1.97007981      12.38931645        5       0.00018545       0.01212532      -0.00838379
Al       3.88214668       1.97792163      12.37193139        5       0.00475456       0.00207906       0.00310305
Al       6.74906762       1.97547900      12.37064778        5       0.00227859       0.00910562      -0.00922883
Al       9.61142356       1.98236773      12.36756540        5       0.00037140       0.00821297      -0.00708488
Al       2.44556937       4.46228062      12.37106057        5       0.00461437      -0.00081547       0.00076775
Al       5.30724444       4.46880169      12.35712345        5       0.00530590      -0.00088888       0.00522174
Al       8.17018241       4.47070881      12.35658984        5       0.00555099      -0.00296746      -0.00067970
Al      11.03715251       4.46283018      12.38259172        5      -0.00581256       0.00042631       0.00000272
Al       3.87707374       6.93980595      12.35800604        5       0.00800576       0.00336422       0.00032661
Al       6.74239395       6.94057913      12.35661681        5       0.00296532       0.00315799       0.00292861
Al       9.60763175       6.93796345      12.39240596        5      -0.00799376       0.00368164      -0.02010084
Al      12.47400762       6.94185506      12.36951637        5      -0.00274105       0.00277554      -0.00926679
Al       5.31696278       9.42062381      12.37461929        5       0.00132338      -0.00673638      -0.01727549
Al       8.17693525       9.42338222      12.38589386        5       0.00809370      -0.01975483      -0.01296174
Al      11.04522849       9.41567108      12.37367889        5       0.00047239       0.00002079      -0.01960784
Al      13.90502267       9.42068605      12.36132790        5       0.00455475       0.00127667      -0.00090237
Al       1.12248023       0.28934867      14.65823669        4       0.00005070      -0.00358002       0.02086442
Al       3.99574264       0.29214841      14.65722165        4      -0.00243619       0.00089924       0.00466514
Al       6.84936263       0.28332214      14.65207117        4       0.00410224       0.00551259       0.00330830
Al       9.70902052       0.30514805      14.63663082        4       0.00268765      -0.00865579       0.02046742
Al       2.56321993       2.78150316      14.65662886        4       0.00009214      -0.00240259       0.00504406
Al       5.42281076       2.77685950      14.64108780        4       0.00001936       0.00212214       0.01237164
Al       8.27632159       2.79599925      14.65076037        4       0.00650133      -0.01058743       0.00792258
Al      11.14896516       2.78361097      14.67525861        4      -0.00493765      -0.00225014       0.00093608
Al       3.99050834       5.25862440      14.66171528        4       0.00093291       0.00007692       0.00216864
Al       6.84843450       5.26220846      14.66823280        4      -0.00162672      -0.00315308      -0.01529934
Al       9.70097796       5.25465463      14.68708731        4       0.00564095       0.00014004      -0.00641238
Al      12.56851744       5.25543934      14.64049632        4       0.00491316       0.00206095       0.01873870
Al       5.41443569       7.72404791      14.66058101        4      -0.00192074       0.00804934       0.00651797
Al       8.27015491       7.72473132      14.68717533        4       0.00291817       0.00682742      -0.00349237
Al      11.14036334       7.73910018      14.64979866        4       0.00220160      -0.00255341       0.01280953
Al      13.99648466       7.72862960      14.64094186        4       0.01372886       0.00503269       0.01920424
Al       2.68744648       1.06852832      16.95418693        3      -0.00237478      -0.00210887      -0.00334557
Al       5.55567777       1.07896041      16.94910593        3      -0.00111100       0.00505538      -0.01236123
Al       8.42242195       1.08431966      16.94224264        3      -0.00013879       0.00064297      -0.01705270
Al      11.27707970       1.08045249      16.95545315        3       0.00324015      -0.00813117      -0.01483880
Al       4.11888070       3.55059435      16.96030569        3      -0.00011800       0.00800950      -0.00016305
Al       6.97215019       3.58679605      16.95875469        3       0.00276021      -0.01658010      -0.00446363
Al       9.83107120       3.56940026      16.99492615        3      -0.00363076       0.00252330      -0.02716649
Al      12.70500738       3.56309459      16.94874409        3       0.00563912       0.00856986      -0.00988796
Al       5.55035779       6.04452174      16.97956356        3      -0.01675886       0.00474608       0.00311909
Al       8.38295489       6.03772069      16.99159402        3       0.02010846       0.01166048       0.00932464
Al      11.27406838       6.05512115      16.95858250        3      -0.00325062       0.00200143      -0.00658655
Al      14.14246390       6.04307521      16.95691992        3       0.00224513       0.00487860      -0.00451711
Al       6.96965782       8.49707755      17.00171130        3       0.00912092       0.01657291      -0.00551317
Al       9.84482176       8.51832356      16.96462727        3      -0.00070370      -0.00263658      -0.00790756
Al      12.72078251       8.53292447      16.95696337        3       0.00077204      -0.00269300      -0.00187356
Al      15.59387615       8.52252606      16.98903393        3      -0.01331092       0.00118842      -0.03108285
Al       1.32739230       1.92022400      19.18952717        2       0.00272287      -0.00085989       0.01263382
Al       4.20662986       1.87449337      19.21245079        2      -0.00758623       0.00120187       0.02231489
Al       7.08525035       1.88820400      19.19282812        2      -0.00484236       0.00182200       0.01988366
Al       9.94948713       1.87438428      19.22356146        2      -0.00114566      -0.00107551       0.00621612
Al       2.76833940       4.41150445      19.23389998        2       0.00135897      -0.00132962      -0.00541492
Al       5.63613369       4.40022256      19.25779830        2      -0.00674433      -0.00025184       0.01377905
Al       8.47227369       4.39307040      19.28849465        2       0.01288536      -0.00668581      -0.00787298
Al      11.36314704       4.39911029      19.19620831        2      -0.00041456      -0.00182156       0.00556482
Al       4.20583505       6.88426247      19.27304733        2      -0.00060886       0.00096092       0.00612446
Al       7.08155763       6.83918661      19.34785539        2       0.00573821       0.00985442      -0.00299807
Al       9.92666388       6.87522621      19.24933752        2      -0.00029847       0.00337309       0.01004731
Al      12.80106661       6.86829270      19.22283711        2      -0.00359524       0.00579308       0.00590190
Al       5.62926401       9.35549781      19.27008137        2      -0.00033499       0.00147212       0.00501411
Al       8.53482415       9.31995438      19.26478429        2      -0.00032728      -0.00160408       0.00805085
Al      11.36799720       9.33831415      19.22416973        2      -0.00495136       0.00141376       0.00613078
Al      14.25096835       9.35596816      19.24970908        2      -0.00090973       0.00259164       0.00334730
Al       1.49105590       0.29185745      21.43807692        1      -0.01145431       0.00073055       0.03835538
Al       4.23101174       0.33004435      22.02517448        1       0.00482451       0.00422288      -0.00380391
Al       7.10890708       0.26749359      21.51623714        1       0.00371159      -0.00155798      -0.01488544
Al      10.26215882       0.21700246      22.02537357        1      -0.00763843      -0.00049048      -0.01629091
Al       2.87555257       2.79902816      21.50137842        1      -0.01075790      -0.00717070       0.00710012
Al       5.74123485       2.73072649      21.46272664        1      -0.01363427       0.01268963       0.07253525
Al       8.66617902       2.60910519      21.50350309        1      -0.03061257       0.01345382       0.00953454
Al      11.44361381       2.81313410      21.52488952        1       0.00948965      -0.01114786      -0.03477491
Al       4.33651953       5.27221102      21.62304473        1      -0.00371330      -0.00461398       0.00840809
Al       7.31730491       5.06799474      21.77406194        1      -0.04601144       0.01904385      -0.03378613
Al      10.10181758       5.24639381      21.54568985        1      -0.02166758      -0.00856028      -0.00326129
Al      12.89377729       5.23573039      21.57769494        1       0.00599344       0.00583851      -0.00419136
Al       5.73838629       7.67777896      21.62716835        1       0.00423579       0.00241877      -0.01510588
Al       8.52016180       7.66118647      22.01181825        1      -0.00718920      -0.00023693      -0.00147773
Al      11.48015927       7.69069581      21.56729401        1      -0.01257051       0.01531138       0.00076157
Al      14.32544417       7.77062948      21.61245107        1       0.00079030       0.00280040      -0.00215404
C        0.59584102       3.57461645      25.05635287        0      -0.06057335      -0.01611798      -0.01479598
C        0.52422232       2.24447680      24.63888023        0       0.09301865      -0.05902693      -0.03493077
C       -0.74900140       1.66970160      24.50983711        0       0.02499425       0.12620066       0.03844228
N       -1.13095184       0.40459679      24.07236983        0      -0.16887489       0.01838649       0.02834651
N       -2.46524602       0.37359305      24.45100158        0      -0.16415651       0.19363700       0.02262331
N       -3.00552159       1.56760442      24.74881357        0       0.19463767      -0.33996710      -0.02083150
C       -1.92730497       2.39650594      24.85975791        0       0.02544423      -0.18586622      -0.02254003
C       -1.84409244       3.74022342      25.27301209        0       0.13806640       0.13844462      -0.01160804
C       -0.58086853       4.31495253      25.35265693        0      -0.00125473      -0.11266472       0.01329604
H        1.57389308       4.05636152      25.12764191        0      -0.01390114       0.00455137      -0.00623768
H        1.41844795       1.64945679      24.41590666        0      -0.07047591       0.09698711       0.01510282
H       -3.06345193      -0.41032221      24.17197435        0       0.01323420       0.01548932      -0.00269078
H       -2.74864212       4.31377716      25.47537445        0      -0.00214556      -0.01073116       0.00550767
H       -0.48336281       5.35640980      25.65908442        0       0.01240483       0.03505719      -0.01208176
