110
Lattice="11.45512985522207 0.0 0.0 5.727564927611035 9.92043345827187 0.0 0.0 0.0 31.691342951089922" Properties=species:S:1:pos:R:3:tags:I:1:forces:R:3 energy=-461.8722229003906 free_energy=-461.8722229003906 stress="0.0037214334588497877 1.5995465219020844e-06 -5.066394805908203e-07 1.5995465219020844e-06 0.003799065249040723 8.461065590381622e-07 -5.066394805908203e-07 8.461065590381622e-07 0.0038041153457015753" pbc="T T F"
Al       2.25459853       0.68986342      10.03804268        6       0.00022842      -0.00030680       0.00145871
Al       5.11715087       0.69193168      10.03022509        6       0.00020121      -0.00032063       0.00138576
Al       7.98768492       0.68634527      10.02759354        6       0.00016689      -0.00046488       0.00155345
Al      10.84767272       0.68388453      10.03918042        6       0.00049438      -0.00071560       0.00039004
Al       3.68890639       3.17184965      10.03522336        6       0.00020688      -0.00045519       0.00060012
Al       6.55868349       3.16587822      10.02640277        6       0.00002033      -0.00033151       0.00140292
Al       9.41858250       3.16535462      10.02616697        6       0.00039674      -0.00017313       0.00158280
Al      12.27942911       3.16592315      10.03846586        6       0.00033216      -0.00032499       0.00084152
Al       5.12783218       5.64246499      10.02604614        6       0.00004660       0.00014526       0.00151231
Al       7.99056780       5.64553299      10.02340866        6       0.00010052       0.00004695       0.00207960
Al      10.84845249       5.64757892      10.02564245        6       0.00040017      -0.00003097       0.00132660
Al      13.71276344       5.64681500      10.03533157        6       0.00042872      -0.00008601       0.00046339
Al       6.55796898       8.12462369      10.03232146        6       0.00010798      -0.00008940       0.00197822
Al       9.41560649       8.12957585      10.02718306        6       0.00026311       0.00003902       0.00183529
Al      12.28034227       8.13049870      10.02587838        6       0.00026889      -0.00022318       0.00146571
Al      15.14895917       8.12306718      10.02617437        6       0.00026885      -0.00020794       0.00180447
Al       0.86378294       1.49721805      12.40054773        5       0.00362383      -0.00173156      -0.00309660
Al       3.72888224       1.50014796      12.39673631        5       0.00231165      -0.00101078       0.00037232
Al       6.59694537       1.50389923      12.38908319        5      -0.00207516      -0.00417101      -0.00029357
Al       9.45915752       1.50047932      12.38106591        5      -0.00089692      -0.00137747       0.00979035
Al       2.30082565       3.97926365      12.39400327        5       0.00227099      -0.00216495      -0.00767613
Al       5.16719881       3.98187824      12.39211147        5      -0.00165064      -0.00299738      -0.00296584
Al       8.02492849       3.98220069      12.38895984        5       0.00024615      -0.00041089       0.00040209
Al      10.88693153       3.97848861      12.39243214        5       0.00038851       0.00135462      -0.00726303
Al       3.73884667       6.45851210      12.39206567        5      -0.00320489       0.00015961      -0.00828739
Al       6.59194973       6.46164788      12.39581264        5       0.00306075      -0.00203781      -0.00072289
Al       9.45435021       6.45867126      12.38360900        5       0.00048174       0.00206922       0.00553273
Al      12.32277668       6.45665573      12.38513239        5      -0.00130258       0.00606516      -0.00650088
Al       5.16220297       8.93272012      12.39995382        5       0.00181349       0.00442411      -0.00266572
Al       8.02043257       8.93837717      12.39851494        5       0.00510355       0.00060511      -0.00016780
Al      10.88946100       8.94246420      12.38695282        5       0.00009508      -0.00104961      -0.00041974
Al      13.75958986       8.93942767      12.38710625        5      -0.00366791      -0.00019777      -0.00459673
Al       0.87985966      -0.16356520      14.68617294        4       0.00253554      -0.00255423      -0.00150877
Al       3.74794134      -0.16632647      14.67325762        4       0.00004220       0.00077411       0.00244045
Al       6.61339024      -0.16749563      14.66188736        4      -0.00020900       0.00110182       0.00352942
Al       9.47121303      -0.16524826      14.67613043        4       0.00124110       0.00133756      -0.00336396
Al       2.31409943       2.32102139      14.67634140        4       0.00293014      -0.00292766      -0.00078059
Al       5.18254255       2.32576426      14.67235077        4      -0.00069617      -0.00420801      -0.00167354
Al       8.03730685       2.32250160      14.66882075        4       0.00110746      -0.00117687       0.00019262
Al      10.90404708       2.31795579      14.66795875        4      -0.00077748      -0.00116256       0.00226965
Al       3.74998854       4.79932531      14.66805360        4       0.00259192      -0.00323361       0.00275689
Al       6.60594511       4.79861250      14.67619303        4       0.00108384      -0.00036837       0.00190507
Al       9.46624826       4.79930067      14.66703522        4       0.00063692      -0.00044550       0.00167127
Al      12.33991876       4.79503721      14.65486450        4      -0.00049993      -0.00112108       0.00392802
Al       5.17545827       7.27707420      14.68837969        4       0.00894230      -0.00470405      -0.00724810
Al       8.03506195       7.27479186      14.67819365        4       0.00059827       0.00026678       0.00235091
Al      10.90567048       7.27755590      14.66059860        4      -0.00123092      -0.00087018       0.00054077
Al      13.77342869       7.26985200      14.65996411        4       0.00072065       0.00062277       0.00303701
Al       2.33651016       0.64756338      16.96974738        3      -0.00060856      -0.00562718       0.00502880
Al       5.19163687       0.66392304      16.96313813        3       0.00499753      -0.01327510      -0.00212793
Al       8.05744333       0.66049876      16.95545275        3      -0.00257452      -0.00726435      -0.00101268
Al      10.92444915       0.63592949      16.96720064        3       0.00113523      -0.00026600       0.00267442
Al       3.77816147       3.11212209      16.97694833        3       0.00004995       0.00246773      -0.00066643
Al       6.61911225       3.12815553      16.98506252        3       0.00271758       0.00008880       0.00236825
Al       9.47999220       3.12147130      16.95731981        3       0.00120435       0.00153059       0.00296110
Al      12.35156697       3.10784869      16.95700960        3       0.00061907       0.00030796       0.00292710
Al       5.21047741       5.58142673      16.98615949        3      -0.00065611       0.00044372      -0.00548229
Al       8.04868032       5.59795528      16.97412447        3       0.00194720       0.00002571       0.00241485
Al      10.92057569       5.59610639      16.94074358        3       0.00032087       0.00105922       0.00253481
Al      13.79516014       5.59006582      16.93876341        3       0.00025383       0.00063675       0.00157566
Al       6.63482347       8.07167943      17.00447694        3      -0.00309552      -0.00034500      -0.01342915
Al       9.47693551       8.08240741      16.96129750        3       0.00280802       0.00026216       0.00256080
Al      12.36068200       8.07481599      16.93793220        3      -0.00134551       0.00384323       0.00016406
Al      15.23887226       8.08151907      16.96190386        3      -0.00352526      -0.00189903      -0.00655531
Al       0.90959895       1.44449141      19.24405564        2      -0.00106412       0.00284191      -0.00200248
Al       3.78736468       1.46060325      19.24275503        2       0.00193982       0.00302198      -0.00811727
Al       6.63945073       1.48136984      19.23714236        2       0.00037010      -0.00091657      -0.00808493
Al       9.50171066       1.47732367      19.19929425        2       0.00082533      -0.00085900      -0.00515708
Al       2.35467212       3.95439227      19.17833459        2      -0.00111357      -0.00213071       0.00409139
Al       5.22767337       3.93828556      19.32315914        2       0.00092740      -0.00095622      -0.00108591
Al       8.07761966       3.96552769      19.25538853        2      -0.00028670      -0.00168207      -0.00181064
Al      10.94145534       3.96431854      19.19724968        2       0.00048998      -0.00233745      -0.00188219
Al       3.78351792       6.41727204      19.17899630        2       0.00103483       0.00013296       0.00511900
Al       6.64314347       6.39987591      19.27709138        2       0.00008435      -0.00214617      -0.01157231
Al       9.52103372       6.41885006      19.20406976        2      -0.00182616       0.00011545      -0.00158295
Al      12.38370515       6.43192479      19.19210944        2      -0.00554891      -0.00384039      -0.00161792
Al       5.21460607       8.91550455      19.25391501        2      -0.00010306       0.00086895      -0.00600658
Al       8.05963103       8.90290975      19.26776426        2       0.00167851       0.00103690      -0.00676490
Al      10.94663444       8.90000882      19.17784602        2       0.00051636       0.00106362      -0.00063263
Al      13.80778159       8.90128650      19.16480191        2      -0.00098099       0.00325906       0.00147447
Al       0.84578746      -0.19960022      21.89806557        1      -0.00212096       0.00337309       0.00255991
Al       3.77985884      -0.18637745      21.53436815        1       0.00077476       0.00273243       0.00931283
Al       6.63622990      -0.17416361      21.49352807        1       0.00191403      -0.00091952       0.00536359
Al       9.46659554      -0.16854871      21.54071772        1       0.00079023       0.00317566       0.00106878
Al       2.32601317       2.29835093      21.51105585        1      -0.00553262       0.00583367       0.01233999
Al       5.18288699       2.30120028      21.72204773        1       0.00006680       0.00058394       0.00632488
Al       8.06738378       2.34802817      21.55446687        1       0.00000285      -0.00580106       0.00757426
Al      10.93744457       2.32488862      21.52930223        1      -0.00405148       0.00268108       0.00226643
Al       3.73079005       4.78639045      21.52211349        1      -0.00182933       0.00154255       0.00074519
Al       6.59739657       4.80463281      21.78362256        1       0.00012992      -0.00142334      -0.00223015
Al       9.53889338       4.81183812      21.58328714        1      -0.00052091      -0.00486231      -0.00088695
Al      12.36202370       4.78484364      21.52239940        1       0.00103155       0.00106973       0.00353234
Al       5.17507342       7.25978756      21.54290160        1       0.00219926       0.00010039       0.00145682
Al       8.08024163       7.26850068      21.57519136        1       0.00272168      -0.00065806       0.00331904
Al      10.96172710       7.25549133      21.51515194        1       0.00555744      -0.00276496       0.00131451
Al      13.81230057       7.24859497      21.45127707        1      -0.00239091      -0.00023574       0.00184487
C        2.46729274       6.72391068      24.78677375        0       0.03176226      -0.03472829       0.00391245
C        2.38193147       5.34328360      24.88495790        0       0.00230315      -0.00258311      -0.00048834
C        1.09531973       4.77810159      25.04351533        0      -0.00162004      -0.01206875       0.00029093
N        0.70660767       3.48037505      25.11741505        0      -0.02246727      -0.00390441       0.00066643
N       -0.63332692       3.56425540      25.19149408        0       0.03007803      -0.01647938      -0.00602633
N       -1.17267605       4.79410394      25.10435610        0      -0.01327523      -0.00783719      -0.00082891
C       -0.08839340       5.60423448      25.04631356        0      -0.00875218       0.02688965      -0.00209635
C        0.03142695       7.00742977      24.92795517        0      -0.01570157       0.01155651       0.00921747
C        1.30451679       7.54719620      24.82500129        0      -0.02830083       0.02643669      -0.00562174
H        3.44225734       7.19352908      24.63906074        0       0.01910673       0.01193393      -0.00342220
H        3.25998821       4.69892879      24.80584630        0      -0.00498821       0.00257204      -0.00004971
H       -1.20396099       2.72612460      25.06275445        0      -0.01295468       0.02373087      -0.00128190
H       -0.85890144       7.63670641      24.91519417        0      -0.00966845       0.00031888      -0.00385565
H        1.42513824       8.62664071      24.71883952        0       0.00499664       0.01490597       0.00020198
