110
Lattice="11.45512985522207 0.0 0.0 5.727564927611035 9.92043345827187 0.0 0.0 0.0 31.691342951089922" Properties=species:S:1:pos:R:3:tags:I:1:forces:R:3 energy=-461.8017578125 free_energy=-461.8017578125 stress="0.004621267318725586 3.320164978504181e-06 -7.869675755500793e-08 3.320164978504181e-06 0.004643731750547886 -1.5338882803916931e-06 -7.869675755500793e-08 -1.5338882803916931e-06 0.004377160686999559" pbc="T T F"
Al       2.29572392       1.13474173      10.02952864        6       0.00122910       0.00028944      -0.00054865
Al       5.15106608       1.14249898      10.00150408        6       0.00285050      -0.00018383      -0.00107953
Al       8.00841663       1.15768543       9.98423381        6       0.00307446      -0.00028907       0.00009396
Al      10.87454757       1.15842848       9.98045307        6       0.00260500      -0.00094862       0.00134112
Al       3.70505490       3.62035051      10.00776154        6       0.00355246      -0.00008772      -0.00154643
Al       6.56126589       3.63684002       9.97950218        6       0.00357892      -0.00060388       0.00060733
Al       9.43068165       3.64193343       9.97365854        6       0.00244808      -0.00089261       0.00171056
Al      12.30069743       3.62054678      10.01959678        6       0.00303843      -0.00066623      -0.00088518
Al       5.10529119       6.11228600       9.96280003        6       0.00459410      -0.00026939       0.00168669
Al       7.96878977       6.11316039       9.95901293        6       0.00440617      -0.00006711       0.00283899
Al      10.84268897       6.10141963      10.00959277        6       0.00358276       0.00038063       0.00103155
Al      13.70824831       6.10080673       9.99445419        6       0.00386076       0.00029447      -0.00040992
Al       6.55010464       8.59148248       9.97701819        6       0.00348565       0.00020056       0.00215197
Al       9.42209086       8.58090621       9.99097738        6       0.00314631      -0.00046376       0.00156625
Al      12.28772898       8.58457917       9.98071533        6       0.00334095      -0.00013524       0.00057047
Al      15.14800928       8.59555336       9.97817591        6       0.00337721      -0.00034194       0.00054653
Al       1.02267552       1.96883801      12.38829574        5      -0.00034386       0.01186391      -0.00763957
Al       3.89024201       1.97626090      12.37061700        5       0.00417856       0.00173130       0.00185126
Al       6.75759061       1.97281802      12.36560319        5       0.00200235       0.00994766      -0.00835145
Al       9.61939431       1.98049550      12.36501083        5       0.00072281       0.00732878      -0.00817477
Al       2.45321246       4.46044819      12.36886851        5       0.00463677      -0.00059624       0.00120500
Al       5.31604555       4.46628274      12.35554780        5       0.00434077      -0.00049127       0.00543702
Al       8.17815207       4.46850651      12.35874367        5       0.00535870      -0.00258385      -0.00132498
Al      11.04423366       4.46229476      12.38358645        5      -0.00457196      -0.00050453      -0.00127741
Al       3.88592729       6.94009673      12.35763305        5       0.00687115       0.00257230       0.00039581
Al       6.75064855       6.93894228      12.36011639        5       0.00250677       0.00323875       0.00233909
Al       9.61455145       6.94006860      12.39167663        5      -0.00680493       0.00162465      -0.01804269
Al      12.48134669       6.94163087      12.36922415        5      -0.00223350       0.00231625      -0.00981120
Al       5.32545681       9.42025342      12.37260881        5       0.00072851      -0.00679365      -0.01638748
Al       8.18502230       9.42060214      12.38254773        5       0.00769992      -0.01731963      -0.01182696
Al      11.05259339       9.41558114      12.37123405        5      -0.00041120      -0.00039236      -0.01963297
Al      13.91411103       9.42067257      12.35705304        5       0.00466770       0.00052302      -0.00183711
Al       1.13028372       0.28975338      14.65645174        4       0.00052874      -0.00290418       0.01976225
Al       4.00359513       0.29472702      14.65471204        4      -0.00371010       0.00046306       0.00463688
Al       6.85608891       0.28494799      14.64769136        4       0.00457200       0.00616946       0.00354609
Al       9.71675022       0.30650604      14.63571249        4       0.00242251      -0.00863325       0.01890992
Al       2.57045299       2.78271720      14.65592426        4      -0.00037144      -0.00239328       0.00457221
Al       5.42926492       2.77855315      14.63841549        4       0.00085969       0.00182249       0.01117078
Al       8.28360898       2.79573392      14.64840227        4       0.00502377      -0.00905825       0.00849199
Al      11.15340598       2.78497533      14.67486811        4      -0.00174947      -0.00099241       0.00161418
Al       3.99850854       5.26091188      14.65844268        4       0.00080006      -0.00004982       0.00233593
Al       6.85580493       5.26235161      14.66951580        4      -0.00147236      -0.00238575      -0.01543657
Al       9.70819499       5.25866265      14.68526401        4       0.00488626      -0.00039635      -0.00406771
Al      12.57861919       5.25864059      14.63959444        4       0.00323892       0.00145710       0.01854038
Al       5.42368455       7.72689669      14.66097356        4      -0.00209033       0.00674290       0.00607936
Al       8.27908388       7.72697200      14.68876720        4       0.00216751       0.00709062      -0.00546279
Al      11.14801875       7.74240912      14.64977179        4       0.00244431      -0.00325037       0.01114014
Al      14.00507184       7.73236068      14.63877053        4       0.01253060       0.00452302       0.01819657
Al       2.69506245       1.06925076      16.95248795        3      -0.00308501      -0.00072537      -0.00320812
Al       5.56158768       1.08291128      16.94598143        3      -0.00043416       0.00533044      -0.01138501
Al       8.42810657       1.08801152      16.94024804        3       0.00130493       0.00112209      -0.01720974
Al      11.28503294       1.08211630      16.95344667        3       0.00237284      -0.00735237      -0.01393695
Al       4.12467370       3.55256572      16.95777717        3       0.00035952       0.00885546       0.00005008
Al       6.97784687       3.58930205      16.95837198        3       0.00243134      -0.01387253      -0.00279540
Al       9.83495465       3.57443993      16.99282995        3      -0.00324179       0.00127354      -0.02519325
Al      12.71089270       3.56655463      16.94626639        3       0.00605478       0.00826540      -0.01055596
Al       5.55604298       6.04770305      16.97828216        3      -0.01496236       0.00428292       0.00513931
Al       8.38882612       6.04125106      16.99242254        3       0.01974952       0.00990257       0.00896505
Al      11.27879152       6.05799566      16.95754173        3      -0.00158680       0.00202882      -0.00907935
Al      14.15066537       6.04948692      16.95233687        3       0.00164803       0.00307754      -0.00299099
Al       6.97787219       8.50103356      17.00274058        3       0.00662546       0.01431737      -0.00434932
Al       9.85096790       8.52269264      16.96178890        3      -0.00006054      -0.00301739      -0.00504758
Al      12.72654046       8.53803493      16.95428379        3       0.00103245      -0.00354883      -0.00259170
Al      15.59938433       8.52470687      16.98572670        3      -0.01155947       0.00217714      -0.02736211
Al       1.33595694       1.92459661      19.18719402        2       0.00282408      -0.00087744       0.01155060
Al       4.21480998       1.87873728      19.21211797        2      -0.00750316       0.00091743       0.02250213
Al       7.09229608       1.89274099      19.19111187        2      -0.00388759       0.00156849       0.01923388
Al       9.95910212       1.87868880      19.22174664        2      -0.00144549      -0.00106522       0.00462997
Al       2.77651673       4.41614091      19.22783144        2       0.00082675      -0.00129567      -0.00353236
Al       5.64290568       4.40731653      19.26256029        2      -0.00718965      -0.00040880       0.01223499
Al       8.48192367       4.39562907      19.29564501        2       0.01094139      -0.00621467      -0.00851877
Al      11.37030093       4.40098655      19.19200066        2      -0.00019566      -0.00128106       0.00613933
Al       4.21492941       6.88773600      19.27556494        2      -0.00135822       0.00100616       0.00387168
Al       7.09175825       6.84020459      19.35063107        2       0.00623227       0.00954438      -0.00306198
Al       9.93607047       6.87843492      19.24664377        2      -0.00078579       0.00290515       0.00978653
Al      12.80854159       6.87132739      19.21602074        2      -0.00352325       0.00613868       0.00558475
Al       5.63624131       9.36138137      19.27253617        2      -0.00052397       0.00134419       0.00296252
Al       8.54402391       9.32005837      19.26488734        2      -0.00078192      -0.00029454       0.00816387
Al      11.37464966       9.34356330      19.21966604        2      -0.00477595       0.00138164       0.00778794
Al      14.25802588       9.36317390      19.24523568        2      -0.00091823       0.00168379       0.00260478
Al       1.50663951       0.30091069      21.43641227        1      -0.01177367       0.00062020       0.03684012
Al       4.24242148       0.32994284      22.02647619        1       0.00481363       0.00427341      -0.00644221
Al       7.11878791       0.27530553      21.51594085        1       0.00312719      -0.00152929      -0.01453917
Al      10.27633767       0.22263387      22.01690017        1      -0.00688628      -0.00100679      -0.01504450
Al       2.89477411       2.80794762      21.49946639        1      -0.01124044      -0.00668212       0.00650656
Al       5.75344699       2.74129004      21.46092353        1      -0.01306427       0.00845299       0.06759325
Al       8.68246232       2.60623007      21.50634273        1      -0.02749637       0.01184740       0.00840843
Al      11.46209158       2.82180101      21.52272712        1       0.00711900      -0.01217910      -0.03201760
Al       4.34715884       5.29386740      21.64208863        1      -0.00331605      -0.00553689       0.00590669
Al       7.34713240       5.06109887      21.80114036        1      -0.04384321       0.01819294      -0.03307293
Al      10.12523839       5.25239070      21.54698040        1      -0.02205848      -0.00793132      -0.00444617
Al      12.91028422       5.24632434      21.57292776        1       0.00520036       0.00525311      -0.00405103
Al       5.75316672       7.68780256      21.62113964        1       0.00341980       0.00140624      -0.01434265
Al       8.52292392       7.66285141      22.01785594        1      -0.00547642       0.00085833      -0.00092699
Al      11.48594496       7.70134800      21.55706375        1      -0.01236917       0.01504016       0.00129643
Al      14.33201104       7.77715754      21.60545612        1       0.00045029       0.00318714      -0.00216998
C        0.55883816       3.58745283      25.03480194        0      -0.05532111      -0.00924246      -0.01524560
C        0.51350660       2.25314978      24.62731764        0       0.09477656      -0.05588514      -0.03396245
C       -0.74765011       1.65229775      24.50393785        0       0.02881493       0.11667937       0.03320929
N       -1.10497658       0.37913338      24.06798018        0      -0.15084396       0.01602124       0.02612642
N       -2.43625376       0.32102180      24.45351525        0      -0.15943694       0.17772603       0.02148827
N       -2.99902997       1.50452835      24.74987666        0       0.17367947      -0.31749621      -0.01726685
C       -1.93882171       2.35671540      24.85356697        0       0.02154838      -0.17044677      -0.01946252
C       -1.88292694       3.70612868      25.25372258        0       0.12585476       0.12515301      -0.01057725
C       -0.63169766       4.30678558      25.32648733        0       0.00405137      -0.10322872       0.01362806
H        1.52675082       4.08989594      25.09761455        0      -0.00841865       0.00696668      -0.00316073
H        1.41878855       1.67490420      24.40712676        0      -0.06204189       0.08979375       0.01314035
H       -3.02086340      -0.47297319      24.17535479        0       0.00949495       0.00784319      -0.00472622
H       -2.79881465       4.26317267      25.45013486        0      -0.00549159      -0.00676962       0.00714784
H       -0.55458307       5.35348768      25.62081812        0       0.01054522       0.03456678      -0.01085153
