&FCI NORB=   5,NELEC=   2,MS2= 1,
  ORBSYM=1,1,1,1,1,
  ISYM=0,
 /
 5.5071719644458055E-02   1   1   1   1
-1.0792927767331705E-04   1   1   1   2
 5.7306597449316985E-05   1   1   1   3
 3.4554861117886966E-05   1   1   1   4
-8.3847471768882815E-05   1   1   1   5
 5.0534022290098485E-02   1   1   2   2
-3.4057040868340819E-06   1   1   2   3
-1.0655547527915421E-04   1   1   2   4
-2.6566503731130910E-04   1   1   2   5
 5.0581474933780825E-02   1   1   3   3
-4.1717625257248556E-04   1   1   3   4
 3.9004152013997914E-05   1   1   3   5
 5.0441833794171498E-02   1   1   4   4
 2.6945745766309113E-07   1   1   4   5
 5.0625904244309898E-02   1   1   5   5
 1.6041516572397531E-03   1   2   1   2
-7.2433845275815409E-06   1   2   1   3
-1.0923781505664239E-04   1   2   1   4
-2.8244593839299947E-04   1   2   1   5
 9.8074849132636000E-05   1   2   2   2
 4.6313505139977145E-05   1   2   2   3
-3.4774519114832893E-04   1   2   2   4
 3.2062545145262518E-04   1   2   2   5
 1.0845431788658106E-04   1   2   3   3
-2.4651655191347484E-04   1   2   3   4
-3.5214438477509355E-04   1   2   3   5
-3.3140168437144156E-04   1   2   4   4
-2.5759757769903713E-04   1   2   4   5
 3.1447548430376131E-04   1   2   5   5
 1.6501799209875517E-03   1   3   1   3
-4.3078816542731896E-04   1   3   1   4
 4.3324435224652169E-05   1   3   1   5
-1.2003379930580012E-05   1   3   2   2
 1.9453496961137747E-05   1   3   2   3
-2.3997054785673992E-04   1   3   2   4
-3.4931292797181891E-04   1   3   2   5
-1.4599638000154956E-04   1   3   3   3
 2.7599059634412571E-04   1   3   3   4
-2.3337036820189464E-04   1   3   3   5
 2.8173356868765019E-04   1   3   4   4
-3.1344268386952761E-04   1   3   4   5
-2.3538851748895778E-04   1   3   5   5
 1.5115830785850629E-03   1   4   1   4
 3.4993204952703526E-07   1   4   1   5
-3.3542813216268068E-04   1   4   2   2
-2.3295268865933190E-04   1   4   2   3
-3.4328488006490291E-04   1   4   2   4
-2.4949331916194366E-04   1   4   2   5
 2.6293280815922748E-04   1   4   3   3
 2.9126960110505639E-04   1   4   3   4
-2.9709404895678142E-04   1   4   3   5
 1.1649294143646902E-05   1   4   4   4
 4.4277267372239322E-05   1   4   4   5
 3.4105238757815696E-05   1   4   5   5
 1.7028936603271805E-03   1   5   1   5
 3.1278087873426116E-04   1   5   2   2
-3.3812304990006066E-04   1   5   2   3
-2.8609985144279084E-04   1   5   2   4
 3.2663168532564213E-04   1   5   2   5
-2.2298130532221486E-04   1   5   3   3
-3.5441912522228292E-04   1   5   3   4
-2.4585605504670848E-04   1   5   3   5
 5.1240956531757722E-05   1   5   4   4
 3.5041880686829573E-05   1   5   4   5
-6.5710646472821258E-05   1   5   5   5
 5.5018726891581313E-02   2   2   2   2
-8.9727869468212804E-06   2   2   2   3
 6.9419451754681820E-05   2   2   2   4
-1.0431448958538514E-04   2   2   2   5
 5.1908173743721767E-02   2   2   3   3
 4.2961255706165820E-05   2   2   3   4
 4.4514553981190268E-05   2   2   3   5
 5.0536619999582991E-02   2   2   4   4
 7.4045269997135692E-05   2   2   4   5
 5.0542623023825728E-02   2   2   5   5
 1.5587236116956578E-03   2   3   2   3
 3.8668242465519752E-05   2   3   2   4
 5.5155803404882026E-05   2   3   2   5
 1.5885974256779351E-05   2   3   3   3
-4.0762884289990984E-05   2   3   3   4
-3.5502343875670533E-05   2   3   3   5
-1.0343573908258523E-05   2   3   4   4
 6.3582611912912703E-05   2   3   4   5
 1.0744387669235815E-05   2   3   5   5
 1.6115819349344235E-03   2   4   2   4
 7.5778336175353646E-05   2   4   2   5
-2.8732181596820747E-05   2   4   3   3
-1.1807518041177058E-05   2   4   3   4
 5.2913292951022213E-04   2   4   3   5
 7.4734021456722595E-06   2   4   4   4
 1.3447491862223722E-05   2   4   4   5
-9.0940914239614982E-06   2   4   5   5
 1.6140625523087587E-03   2   5   2   5
-3.6611661656840786E-05   2   5   3   3
-4.0092026277582294E-04   2   5   3   4
 1.2407479915056756E-05   2   5   3   5
 1.2649072001712779E-05   2   5   4   4
 1.8387045175718904E-06   2   5   4   5
 3.5493596577113902E-05   2   5   5   5
 5.5013018918751523E-02   3   3   3   3
 8.2988922557352166E-05   3   3   3   4
-3.4001581244060453E-05   3   3   3   5
 5.0608341484599598E-02   3   3   4   4
-6.7996458759288523E-05   3   3   4   5
 5.0479657680616845E-02   3   3   5   5
 1.6822010422824381E-03   3   4   3   4
-6.9460170525378935E-05   3   4   3   5
-3.6177795942008716E-05   3   4   4   4
-3.4093411686229165E-06   3   4   4   5
-1.0969446820396122E-05   3   4   5   5
 1.5524192291834719E-03   3   5   3   5
 8.4477055678980243E-06   3   5   4   4
-8.7960983094744817E-06   3   5   4   5
 2.1566510291852031E-05   3   5   5   5
 5.5033065588664054E-02   4   4   4   4
-1.5864884037871074E-07   4   4   4   5
 5.1917380851709320E-02   4   4   5   5
 1.5599592048608621E-03   4   5   4   5
 2.2286577336442433E-07   4   5   5   5
 5.5034276246644517E-02   5   5   5   5
-9.3743194734163232E-02   1   1   0   0
 3.5700425583399614E-04   1   2   0   0
-2.6067671683489867E-05   1   3   0   0
 1.2269398369027079E-04   1   4   0   0
 8.6640255649814645E-04   1   5   0   0
-7.0804686199216649E-02   2   2   0   0
-1.2111435480649643E-03   2   3   0   0
-1.4845981916729678E-03   2   4   0   0
 1.3038967153891734E-03   2   5   0   0
-9.6381042775258663E-02   3   3   0   0
 1.1167861329843313E-03   3   4   0   0
 8.9579434284287160E-04   3   5   0   0
-9.2889279001974440E-02   4   4   0   0
 8.6408514522044629E-03   4   5   0   0
-7.4143956421748966E-02   5   5   0   0
-1.9934087786584382E+02   0   0   0   0
