&FCI NORB=   5,NELEC=   2,MS2= 1,
  ORBSYM=1,1,1,1,1,
  ISYM=0,
 /
 7.5364719042588735E-02   1   1   1   1
 2.0230811238740906E-04   1   1   1   2
 8.6765862959551677E-05   1   1   1   3
-3.2634544603824859E-05   1   1   1   4
-7.8446148076032800E-07   1   1   1   5
 7.1393884248767317E-02   1   1   2   2
 4.0218593264731002E-05   1   1   2   3
 3.6537700984501180E-04   1   1   2   4
-1.2406628267706112E-05   1   1   2   5
 7.1319066849722654E-02   1   1   3   3
-5.9353044947170103E-05   1   1   3   4
-3.1079552330936383E-04   1   1   3   5
 6.8704324609072220E-02   1   1   4   4
 1.6169725055605294E-04   1   1   4   5
 6.9313485204737138E-02   1   1   5   5
 1.8234916072619308E-03   1   2   1   2
 4.1935359693101073E-06   1   2   1   3
-1.4920257486176618E-04   1   2   1   4
-2.9075863298484906E-05   1   2   1   5
-3.9694711209689820E-04   1   2   2   2
-3.2337367298899587E-04   1   2   2   3
 3.8775146953809473E-05   1   2   2   4
-6.2907131425672421E-07   1   2   2   5
 1.6302741061479357E-04   1   2   3   3
-1.3079198269892361E-05   1   2   3   4
-9.8079244161447944E-05   1   2   3   5
 6.8434207303792814E-05   1   2   4   4
-1.3153694170323107E-04   1   2   4   5
-2.6992135708022672E-04   1   2   5   5
 1.8085491917527445E-03   1   3   1   3
-4.2318913612296368E-05   1   3   1   4
 1.5065418811219177E-04   1   3   1   5
-3.7576855604905116E-04   1   3   2   2
 5.7402535329119673E-05   1   3   2   3
-4.7978872905107646E-05   1   3   2   4
 9.7101094517295741E-05   1   3   2   5
 2.7553806465466040E-04   1   3   3   3
-2.1436242285134368E-05   1   3   3   4
 7.6486231072531727E-05   1   3   3   5
 6.3063398507622886E-06   1   3   4   4
-2.6904102035189744E-04   1   3   4   5
-8.6015860820117450E-06   1   3   5   5
 1.0869622045836863E-03   1   4   1   4
 1.7994934273961598E-04   1   4   1   5
 3.9894746345280101E-05   1   4   2   2
 4.5927975600767852E-06   1   4   2   3
 9.4580628160030155E-05   1   4   2   4
-1.1560812358752255E-04   1   4   2   5
-8.8760914526892133E-05   1   4   3   3
 1.3479287790852744E-05   1   4   3   4
 6.5260499411883506E-05   1   4   3   5
 4.2681551224225726E-06   1   4   4   4
 1.1032663370977729E-05   1   4   4   5
-1.8198017007254531E-04   1   4   5   5
 1.3704737086030713E-03   1   5   1   5
 4.5627758589148233E-05   1   5   2   2
 5.7376240237230616E-05   1   5   2   3
-1.6950710369835294E-04   1   5   2   4
 8.6773131945974103E-05   1   5   2   5
-1.2260352521771697E-04   1   5   3   3
-1.3364325665814864E-04   1   5   3   4
-2.4502785828837512E-05   1   5   3   5
 5.2879462953940367E-05   1   5   4   4
 7.1864941993424482E-05   1   5   4   5
 2.8492194414289064E-05   1   5   5   5
 7.4547726814822621E-02   2   2   2   2
-2.8824546324715983E-04   2   2   2   3
-8.6708697989491126E-05   2   2   2   4
 3.3855754587318418E-05   2   2   2   5
 7.1133739224316539E-02   2   2   3   3
-4.5206950515120281E-05   2   2   3   4
 9.3690745311910745E-05   2   2   3   5
 6.9194747764638437E-02   2   2   4   4
-4.7045589479450503E-05   2   2   4   5
 6.9340760770026821E-02   2   2   5   5
 1.8464128554505558E-03   2   3   2   3
 1.6688907739154629E-05   2   3   2   4
 1.8461398536647851E-05   2   3   2   5
 1.0157511567665883E-04   2   3   3   3
-1.7440841384045900E-05   2   3   3   4
-1.3354486288204038E-05   2   3   3   5
 4.2741307769661396E-05   2   3   4   4
 7.6060831192689181E-05   2   3   4   5
 1.2932387680229102E-04   2   3   5   5
 1.6770795286178836E-03   2   4   2   4
-1.9116894686174989E-04   2   4   2   5
 6.1504032380934257E-06   2   4   3   3
-5.0140027709313540E-05   2   4   3   4
-3.8184631187039889E-04   2   4   3   5
 1.5274234286843968E-04   2   4   4   4
 1.6580884512557765E-05   2   4   4   5
-1.3311240805450258E-04   2   4   5   5
 1.1552921560633411E-03   2   5   2   5
-6.7839386177010128E-05   2   5   3   3
-4.2052041929047606E-05   2   5   3   4
 1.6379116554427083E-04   2   5   3   5
 2.6102995215615225E-05   2   5   4   4
 6.0247701260145101E-05   2   5   4   5
-1.4783241510555675E-05   2   5   5   5
 7.4111137160664586E-02   3   3   3   3
-3.6936166793048476E-05   3   3   3   4
 9.3778340513144112E-05   3   3   3   5
 6.9177994096079470E-02   3   3   4   4
 4.3022592667158062E-05   3   3   4   5
 6.9008014133194559E-02   3   3   5   5
 1.1077065143706691E-03   3   4   3   4
 5.5260523223589098E-05   3   4   3   5
-4.9167902812565929E-05   3   4   4   4
 9.0012469448405925E-06   3   4   4   5
-3.8485614373137564E-05   3   4   5   5
 1.5503583294937194E-03   3   5   3   5
-4.3386246755662216E-05   3   5   4   4
 1.1949952773797155E-05   3   5   4   5
-2.5199978833145140E-05   3   5   5   5
 7.0445860673850072E-02   4   4   4   4
 2.0519202708293180E-04   4   4   4   5
 6.7614834661881590E-02   4   4   5   5
 1.7314874375243157E-03   4   5   4   5
 2.3557942359108810E-04   4   5   5   5
 7.0982554742305901E-02   5   5   5   5
-1.2832408010855495E-01   1   1   0   0
-1.0233779054365417E-03   1   2   0   0
-3.2669795854136487E-03   1   3   0   0
 3.4569628286728270E-03   1   4   0   0
 2.8594404411148360E-03   1   5   0   0
-1.2516473846953510E-01   2   2   0   0
-4.0362861152747293E-04   2   3   0   0
 5.1909547056369903E-04   2   4   0   0
 2.0124508823917467E-03   2   5   0   0
-1.2523887442515738E-01   3   3   0   0
 2.1934776350554367E-03   3   4   0   0
 2.4249651647212322E-03   3   5   0   0
-1.1947121823627702E-01   4   4   0   0
 2.2779410468414508E-04   4   5   0   0
-1.2025196043122582E-01   5   5   0   0
-2.4127859896289780E+02   0   0   0   0
