 DBCSR| CPU Multiplication driver                                           XSMM (U)
 DBCSR| Multrec recursion limit                                              512 (U)
 DBCSR| Multiplication stack size                                           1000 (D)
 DBCSR| Maximum elements for images                                    UNLIMITED (U)
 DBCSR| Multiplicative factor virtual images                                   1 (U)
 DBCSR| Use multiplication densification                                       T (D)
 DBCSR| Multiplication size stacks                                             3 (U)
 DBCSR| Use memory pool for CPU allocation                                     F (U)
 DBCSR| Number of 3D layers                                               SINGLE (U)
 DBCSR| Use MPI memory allocation                                              F (U)
 DBCSR| Use RMA algorithm                                                      F (U)
 DBCSR| Use Communication thread                                               T (U)
 DBCSR| Communication thread load                                             87 (D)
 DBCSR| MPI: My process id                                                     0
 DBCSR| MPI: Number of processes                                              48
 DBCSR| OMP: Current number of threads                                         1
 DBCSR| OMP: Max number of threads                                             1
 DBCSR| Split modifier for TAS multiplication algorithm                  1.0E+00 (U)


  **** **** ******  **  PROGRAM STARTED AT               2024-11-02 09:17:06.376
 ***** ** ***  *** **   PROGRAM STARTED ON                          61424b489943
 **    ****   ******    PROGRAM STARTED BY                             <unknown>
 ***** **    ** ** **   PROGRAM PROCESS ID                                   587
  **** **  *******  **  PROGRAM STARTED IN                                  /mnt

 CP2K| version string:                                       CP2K version 2024.3
 CP2K| source code revision number:                                  git:6712648
 CP2K| cp2kflags: omp libint fftw3 libxc libgrpp pexsi elpa parallel scalapack c
 CP2K|            osma quip xsmm plumed2 spglib libdftd4 sirius libvori libbqb l
 CP2K|            libtorch libvdwxc hdf5
 CP2K| is freely available from                            https://www.cp2k.org/
 CP2K| Program compiled at                          Mon Sep  9 14:39:12 UTC 2024
 CP2K| Program compiled on                                          5c005b387e2b
 CP2K| Program compiled for                                                local
 CP2K| Data directory path                                        /opt/cp2k/data
 CP2K| Input file name                                    Al111_active_space.inp

 GLOBAL| Force Environment number                                              1
 GLOBAL| Basis set file name                                        BASIS_MOLOPT
 GLOBAL| Potential file name                                           POTENTIAL
 GLOBAL| MM Potential file name                                     MM_POTENTIAL
 GLOBAL| Coordinate file name           al_slab_with_Triazole-3-thiol_4x4x6_v10.
 GLOBAL| Method name                                                        CP2K
 GLOBAL| Project name                           Al111_4x4_active_space_adsorbate
 GLOBAL| Run type                                                         ENERGY
 GLOBAL| FFT library                                                       FFTW3
 GLOBAL| Diagonalization library                                            ELPA
 GLOBAL| DGEMM library                                                      BLAS
 GLOBAL| Minimum number of eigenvectors for ELPA usage                        16
 GLOBAL| Orthonormality check for eigenvectors                          DISABLED
 GLOBAL| Matrix multiplication library                                     COSMA
 GLOBAL| All-to-all communication in single precision                          F
 GLOBAL| FFTs using library dependent lengths                                  F
 GLOBAL| Grid backend                                                       AUTO
 GLOBAL| Global print level                                               MEDIUM
 GLOBAL| MPI I/O enabled                                                       T
 GLOBAL| Total number of message passing processes                            48
 GLOBAL| Number of threads for this process                                    1
 GLOBAL| This output is from process                                           0
 GLOBAL| Stack size for threads created by OpenMP (OMP_STACKSIZE)            16M
 GLOBAL| CPU model name                                  AMD EPYC 7R13 Processor
 GLOBAL| CPUID                                                              1002
 GLOBAL| Compiled for CPUID                                                    0

 *** HINT in environment.F:921 :: The compiler target flags (generic) used ***
 *** to build this binary cannot exploit all extensions of this CPU model  ***
 *** (x86_avx2). Consider compiler target flags as part of FCFLAGS and     ***
 *** CFLAGS (ARCH file).                                                   ***


 MEMORY| system memory details [Kb]
 MEMORY|                        rank 0           min           max       average
 MEMORY| MemTotal            387819248     387819248     387819248     387819248
 MEMORY| MemFree             376059120     376059120     376059120     376059120
 MEMORY| Buffers                133260        133260        133260        133260
 MEMORY| Cached                1584456       1584200       1584456       1584434
 MEMORY| Slab                   729028        729028        729028        729028
 MEMORY| SReclaimable           263848        263848        263848        263848
 MEMORY| MemLikelyFree       378040684     378040428     378040684     378040662


 *** Fundamental physical constants (SI units) ***

 *** Literature: B. J. Mohr and B. N. Taylor,
 ***             CODATA recommended values of the fundamental physical
 ***             constants: 2006, Web Version 5.1
 ***             http://physics.nist.gov/constants

 Speed of light in vacuum [m/s]                             2.99792458000000E+08
 Magnetic constant or permeability of vacuum [N/A**2]       1.25663706143592E-06
 Electric constant or permittivity of vacuum [F/m]          8.85418781762039E-12
 Planck constant (h) [J*s]                                  6.62606896000000E-34
 Planck constant (h-bar) [J*s]                              1.05457162825177E-34
 Elementary charge [C]                                      1.60217648700000E-19
 Electron mass [kg]                                         9.10938215000000E-31
 Electron g factor [ ]                                     -2.00231930436220E+00
 Proton mass [kg]                                           1.67262163700000E-27
 Fine-structure constant                                    7.29735253760000E-03
 Rydberg constant [1/m]                                     1.09737315685270E+07
 Avogadro constant [1/mol]                                  6.02214179000000E+23
 Boltzmann constant [J/K]                                   1.38065040000000E-23
 Atomic mass unit [kg]                                      1.66053878200000E-27
 Bohr radius [m]                                            5.29177208590000E-11

 *** Conversion factors ***

 [u] -> [a.u.]                                              1.82288848426455E+03
 [Angstrom] -> [Bohr] = [a.u.]                              1.88972613288564E+00
 [a.u.] = [Bohr] -> [Angstrom]                              5.29177208590000E-01
 [a.u.] -> [s]                                              2.41888432650478E-17
 [a.u.] -> [fs]                                             2.41888432650478E-02
 [a.u.] -> [J]                                              4.35974393937059E-18
 [a.u.] -> [N]                                              8.23872205491840E-08
 [a.u.] -> [K]                                              3.15774647902944E+05
 [a.u.] -> [kJ/mol]                                         2.62549961709828E+03
 [a.u.] -> [kcal/mol]                                       6.27509468713739E+02
 [a.u.] -> [Pa]                                             2.94210107994716E+13
 [a.u.] -> [bar]                                            2.94210107994716E+08
 [a.u.] -> [atm]                                            2.90362800883016E+08
 [a.u.] -> [eV]                                             2.72113838565563E+01
 [a.u.] -> [Hz]                                             6.57968392072181E+15
 [a.u.] -> [1/cm] (wave numbers)                            2.19474631370540E+05
 [a.u./Bohr**2] -> [1/cm]                                   5.14048714338585E+03
 

 CELL_TOP| Volume [angstrom^3]:                                      4545.594139
 CELL_TOP| Vector a [angstrom    11.455     0.000     0.000   |a| =    11.455130
 CELL_TOP| Vector b [angstrom     5.728     9.920     0.000   |b| =    11.455130
 CELL_TOP| Vector c [angstrom     0.000     0.000    40.000   |c| =    40.000000
 CELL_TOP| Angle (b,c), alpha [degree]:                                90.000000
 CELL_TOP| Angle (a,c), beta  [degree]:                                90.000000
 CELL_TOP| Angle (a,b), gamma [degree]:                                60.000000
 CELL_TOP| Numerically orthorhombic:                                          NO
 CELL_TOP| Periodicity                                                       XYZ

 GENERATE|  Preliminary Number of Bonds generated:                             0
 GENERATE|  Achieved consistency in connectivity generation.

 CELL| Volume [angstrom^3]:                                          4545.594139
 CELL| Vector a [angstrom]:      11.455     0.000     0.000   |a| =    11.455130
 CELL| Vector b [angstrom]:       5.728     9.920     0.000   |b| =    11.455130
 CELL| Vector c [angstrom]:       0.000     0.000    40.000   |c| =    40.000000
 CELL| Angle (b,c), alpha [degree]:                                    90.000000
 CELL| Angle (a,c), beta  [degree]:                                    90.000000
 CELL| Angle (a,b), gamma [degree]:                                    60.000000
 CELL| Numerically orthorhombic:                                              NO
 CELL| Periodicity                                                           XYZ

 CELL_REF| Volume [angstrom^3]:                                      4545.594139
 CELL_REF| Vector a [angstrom    11.455     0.000     0.000   |a| =    11.455130
 CELL_REF| Vector b [angstrom     5.728     9.920     0.000   |b| =    11.455130
 CELL_REF| Vector c [angstrom     0.000     0.000    40.000   |c| =    40.000000
 CELL_REF| Angle (b,c), alpha [degree]:                                90.000000
 CELL_REF| Angle (a,c), beta  [degree]:                                90.000000
 CELL_REF| Angle (a,b), gamma [degree]:                                60.000000
 CELL_REF| Numerically orthorhombic:                                          NO
 CELL_REF| Periodicity                                                       XYZ

 *******************************************************************************
 *******************************************************************************
 **                                                                           **
 **     #####                         ##              ##                      **
 **    ##   ##            ##          ##              ##                      **
 **   ##     ##                       ##            ######                    **
 **   ##     ##  ##   ##  ##   #####  ##  ##   ####   ##    #####    #####    **
 **   ##     ##  ##   ##  ##  ##      ## ##   ##      ##   ##   ##  ##   ##   **
 **   ##  ## ##  ##   ##  ##  ##      ####     ###    ##   ######   ######    **
 **    ##  ###   ##   ##  ##  ##      ## ##      ##   ##   ##       ##        **
 **     #######   #####   ##   #####  ##  ##  ####    ##    #####   ##        **
 **           ##                                                    ##        **
 **                                                                           **
 **                                                ... make the atoms dance   **
 **                                                                           **
 **            Copyright (C) by CP2K developers group (2000-2024)             **
 **                      J. Chem. Phys. 152, 194103 (2020)                    **
 **                                                                           **
 *******************************************************************************

 *** WARNING in qs_environment.F:1540 :: More added MOs requested than     ***
 *** available. The full set of unoccupied MOs will be used. Use           ***
 *** 'ADDED_MOS -1' to always use all available MOs and to get rid of this ***
 *** warning.                                                              ***


 DFT| Spin restricted Kohn-Sham (RKS) calculation                            RKS
 DFT| Multiplicity                                                             1
 DFT| Number of spin states                                                    1
 DFT| Charge                                                                   0
 DFT| Self-interaction correction (SIC)                                       NO
 DFT| Cutoffs: density                                              1.000000E-10
 DFT|          gradient                                             1.000000E-10
 DFT|          tau                                                  1.000000E-10
 DFT|          cutoff_smoothing_range                               0.000000E+00
 DFT| XC density smoothing                                                  NONE
 DFT| XC derivatives                                                          PW

 FUNCTIONAL| PBE:
 FUNCTIONAL| J.P.Perdew, K.Burke, M.Ernzerhof, Phys. Rev. Letter, vol. 77, n 18,
 FUNCTIONAL|  pp. 3865-3868, (1996) {spin unpolarized}                          

 vdW POTENTIAL|                                                   Pair Potential
 vdW POTENTIAL|          DFT-D3 (Version 3.1)
 vdW POTENTIAL|          Potential Form: S. Grimme et al, JCP 132: 154104 (2010)
 vdW POTENTIAL|          Zero Damping
 vdW POTENTIAL|          Cutoff Radius [Bohr]:                             20.00
 vdW POTENTIAL|          s6 Scaling Factor:                               1.0000
 vdW POTENTIAL|          sr6 Scaling Factor:                              1.2170
 vdW POTENTIAL|          s8 Scaling Factor:                               0.7220
 vdW POTENTIAL|          Cutoff for CN calculation:                   0.1000E-05

 QS| Method:                                                                 GPW
 QS| Density plane wave grid type                        NON-SPHERICAL FULLSPACE
 QS| Number of grid levels:                                                    5
 QS| Density cutoff [a.u.]:                                                250.0
 QS| Multi grid cutoff [a.u.]: 1) grid level                               250.0
 QS|                           2) grid level                                83.3
 QS|                           3) grid level                                27.8
 QS|                           4) grid level                                 9.3
 QS|                           5) grid level                                 3.1
 QS| Grid level progression factor:                                          3.0
 QS| Relative density cutoff [a.u.]:                                        30.0
 QS| Interaction thresholds: eps_pgf_orb:                                1.0E-05
 QS|                         eps_filter_matrix:                          0.0E+00
 QS|                         eps_core_charge:                            1.0E-12
 QS|                         eps_rho_gspace:                             1.0E-10
 QS|                         eps_rho_rspace:                             1.0E-10
 QS|                         eps_gvg_rspace:                             1.0E-05
 QS|                         eps_ppl:                                    1.0E-02
 QS|                         eps_ppnl:                                   1.0E-07


 ATOMIC KIND INFORMATION

  1. Atomic kind: C                                     Number of atoms:       2

     Orbital Basis Set                                           DZVP-MOLOPT-GTH

       Number of orbital shell sets:                                           1
       Number of orbital shells:                                               5
       Number of primitive Cartesian functions:                                7
       Number of Cartesian basis functions:                                   14
       Number of spherical basis functions:                                   13
       Norm type:                                                              2

       Normalised Cartesian orbitals:

                        Set   Shell   Orbital            Exponent    Coefficient

                          1       1    2s                6.132625      -0.263661
                                                         2.625196      -0.231112
                                                         1.045457       0.042712
                                                         0.478316       0.306085
                                                         0.178617       0.065483
                                                         0.075145       0.000568
                                                         0.030287       0.000417

                          1       2    3s                6.132625       0.131937
                                                         2.625196       0.414269
                                                         1.045457      -0.593590
                                                         0.478316       0.644922
                                                         0.178617       0.069203
                                                         0.075145      -0.145101
                                                         0.030287       0.008247

                          1       3    3px               6.132625       0.562677
                                                         2.625196       0.633910
                                                         1.045457       0.379157
                                                         0.478316       0.235193
                                                         0.178617       0.052379
                                                         0.075145       0.003677
                                                         0.030287       0.000105
                          1       3    3py               6.132625       0.562677
                                                         2.625196       0.633910
                                                         1.045457       0.379157
                                                         0.478316       0.235193
                                                         0.178617       0.052379
                                                         0.075145       0.003677
                                                         0.030287       0.000105
                          1       3    3pz               6.132625       0.562677
                                                         2.625196       0.633910
                                                         1.045457       0.379157
                                                         0.478316       0.235193
                                                         0.178617       0.052379
                                                         0.075145       0.003677
                                                         0.030287       0.000105

                          1       4    4px               6.132625      -0.472364
                                                         2.625196      -0.221326
                                                         1.045457      -0.481781
                                                         0.478316       0.135466
                                                         0.178617       0.072281
                                                         0.075145       0.024920
                                                         0.030287       0.002706
                          1       4    4py               6.132625      -0.472364
                                                         2.625196      -0.221326
                                                         1.045457      -0.481781
                                                         0.478316       0.135466
                                                         0.178617       0.072281
                                                         0.075145       0.024920
                                                         0.030287       0.002706
                          1       4    4pz               6.132625      -0.472364
                                                         2.625196      -0.221326
                                                         1.045457      -0.481781
                                                         0.478316       0.135466
                                                         0.178617       0.072281
                                                         0.075145       0.024920
                                                         0.030287       0.002706

                          1       5    4dx2              6.132625       0.874783
                                                         2.625196       0.375772
                                                         1.045457       0.653959
                                                         0.478316       0.191007
                                                         0.178617       0.018656
                                                         0.075145       0.003649
                                                         0.030287      -0.000011
                          1       5    4dxy              6.132625       1.515169
                                                         2.625196       0.650856
                                                         1.045457       1.132690
                                                         0.478316       0.330834
                                                         0.178617       0.032314
                                                         0.075145       0.006321
                                                         0.030287      -0.000019
                          1       5    4dxz              6.132625       1.515169
                                                         2.625196       0.650856
                                                         1.045457       1.132690
                                                         0.478316       0.330834
                                                         0.178617       0.032314
                                                         0.075145       0.006321
                                                         0.030287      -0.000019
                          1       5    4dy2              6.132625       0.874783
                                                         2.625196       0.375772
                                                         1.045457       0.653959
                                                         0.478316       0.191007
                                                         0.178617       0.018656
                                                         0.075145       0.003649
                                                         0.030287      -0.000011
                          1       5    4dyz              6.132625       1.515169
                                                         2.625196       0.650856
                                                         1.045457       1.132690
                                                         0.478316       0.330834
                                                         0.178617       0.032314
                                                         0.075145       0.006321
                                                         0.030287      -0.000019
                          1       5    4dz2              6.132625       0.874783
                                                         2.625196       0.375772
                                                         1.045457       0.653959
                                                         0.478316       0.191007
                                                         0.178617       0.018656
                                                         0.075145       0.003649
                                                         0.030287      -0.000011

       Atomic covalent radius [Angstrom]:                                  0.770

       Atomic van der Waals radius [Angstrom]:                             1.700

     GTH Potential information for                                    GTH-PBE-q4

       Description:                       Goedecker-Teter-Hutter pseudopotential
                                           Goedecker et al., PRB 54, 1703 (1996)
                                          Hartwigsen et al., PRB 58, 3641 (1998)
                                                      Krack, TCA 114, 145 (2005)

       Gaussian exponent of the core charge distribution:               4.364419
       Electronic configuration (s p d ...):                               2   2

       Parameters of the local part of the GTH pseudopotential:

                          rloc        C1          C2          C3          C4
                        0.338471   -8.803674    1.339211

       Parameters of the non-local part of the GTH pseudopotential:

                   l      r(l)      h(i,j,l)

                   0    0.302576    9.622487
                   1    0.291507

  2. Atomic kind: N                                     Number of atoms:       3

     Orbital Basis Set                                           DZVP-MOLOPT-GTH

       Number of orbital shell sets:                                           1
       Number of orbital shells:                                               5
       Number of primitive Cartesian functions:                                7
       Number of Cartesian basis functions:                                   14
       Number of spherical basis functions:                                   13
       Norm type:                                                              2

       Normalised Cartesian orbitals:

                        Set   Shell   Orbital            Exponent    Coefficient

                          1       1    2s                9.042730      -0.237404
                                                         3.882225      -0.265910
                                                         1.512880       0.102064
                                                         0.586631       0.295369
                                                         0.222851       0.088647
                                                         0.084583       0.003860
                                                         0.039194       0.000722

                          1       2    3s                9.042730       0.259152
                                                         3.882225       0.251432
                                                         1.512880      -0.043896
                                                         0.586631      -0.328079
                                                         0.222851       0.175857
                                                         0.084583       0.069169
                                                         0.039194       0.004207

                          1       3    3px               9.042730       0.822162
                                                         3.882225       0.990771
                                                         1.512880       0.665657
                                                         0.586631       0.321705
                                                         0.222851       0.063706
                                                         0.084583       0.004155
                                                         0.039194      -0.000005
                          1       3    3py               9.042730       0.822162
                                                         3.882225       0.990771
                                                         1.512880       0.665657
                                                         0.586631       0.321705
                                                         0.222851       0.063706
                                                         0.084583       0.004155
                                                         0.039194      -0.000005
                          1       3    3pz               9.042730       0.822162
                                                         3.882225       0.990771
                                                         1.512880       0.665657
                                                         0.586631       0.321705
                                                         0.222851       0.063706
                                                         0.084583       0.004155
                                                         0.039194      -0.000005

                          1       4    4px               9.042730      -0.251449
                                                         3.882225      -0.215479
                                                         1.512880      -0.200519
                                                         0.586631      -0.125283
                                                         0.222851       0.136219
                                                         0.084583       0.034362
                                                         0.039194       0.000879
                          1       4    4py               9.042730      -0.251449
                                                         3.882225      -0.215479
                                                         1.512880      -0.200519
                                                         0.586631      -0.125283
                                                         0.222851       0.136219
                                                         0.084583       0.034362
                                                         0.039194       0.000879
                          1       4    4pz               9.042730      -0.251449
                                                         3.882225      -0.215479
                                                         1.512880      -0.200519
                                                         0.586631      -0.125283
                                                         0.222851       0.136219
                                                         0.084583       0.034362
                                                         0.039194       0.000879

                          1       5    4dx2              9.042730       1.099742
                                                         3.882225       0.532064
                                                         1.512880       0.873643
                                                         0.586631       0.456348
                                                         0.222851       0.017840
                                                         0.084583      -0.000857
                                                         0.039194      -0.000086
                          1       5    4dxy              9.042730       1.904809
                                                         3.882225       0.921562
                                                         1.512880       1.513195
                                                         0.586631       0.790419
                                                         0.222851       0.030900
                                                         0.084583      -0.001484
                                                         0.039194      -0.000150
                          1       5    4dxz              9.042730       1.904809
                                                         3.882225       0.921562
                                                         1.512880       1.513195
                                                         0.586631       0.790419
                                                         0.222851       0.030900
                                                         0.084583      -0.001484
                                                         0.039194      -0.000150
                          1       5    4dy2              9.042730       1.099742
                                                         3.882225       0.532064
                                                         1.512880       0.873643
                                                         0.586631       0.456348
                                                         0.222851       0.017840
                                                         0.084583      -0.000857
                                                         0.039194      -0.000086
                          1       5    4dyz              9.042730       1.904809
                                                         3.882225       0.921562
                                                         1.512880       1.513195
                                                         0.586631       0.790419
                                                         0.222851       0.030900
                                                         0.084583      -0.001484
                                                         0.039194      -0.000150
                          1       5    4dz2              9.042730       1.099742
                                                         3.882225       0.532064
                                                         1.512880       0.873643
                                                         0.586631       0.456348
                                                         0.222851       0.017840
                                                         0.084583      -0.000857
                                                         0.039194      -0.000086

       Atomic covalent radius [Angstrom]:                                  0.750

       Atomic van der Waals radius [Angstrom]:                             1.550

     GTH Potential information for                                    GTH-PBE-q5

       Description:                       Goedecker-Teter-Hutter pseudopotential
                                           Goedecker et al., PRB 54, 1703 (1996)
                                          Hartwigsen et al., PRB 58, 3641 (1998)
                                                      Krack, TCA 114, 145 (2005)

       Gaussian exponent of the core charge distribution:               6.208322
       Electronic configuration (s p d ...):                               2   3

       Parameters of the local part of the GTH pseudopotential:

                          rloc        C1          C2          C3          C4
                        0.283791  -12.415226    1.868096

       Parameters of the non-local part of the GTH pseudopotential:

                   l      r(l)      h(i,j,l)

                   0    0.255405   13.630263
                   1    0.245495

  3. Atomic kind: S                                     Number of atoms:       1

     Orbital Basis Set                                           DZVP-MOLOPT-GTH

       Number of orbital shell sets:                                           1
       Number of orbital shells:                                               5
       Number of primitive Cartesian functions:                                6
       Number of Cartesian basis functions:                                   14
       Number of spherical basis functions:                                   13
       Norm type:                                                              2

       Normalised Cartesian orbitals:

                        Set   Shell   Orbital            Exponent    Coefficient

                          1       1    2s                3.817591       0.157264
                                                         2.362752      -0.510082
                                                         0.861004      -0.067545
                                                         0.417525       0.341507
                                                         0.181514       0.065073
                                                         0.070571       0.000166

                          1       2    3s                3.817591      -0.204385
                                                         2.362752       0.558740
                                                         0.861004       0.301625
                                                         0.417525      -0.627222
                                                         0.181514       0.190853
                                                         0.070571       0.080605

                          1       3    3px               3.817591      -0.172386
                                                         2.362752      -0.175607
                                                         0.861004       0.224215
                                                         0.417525       0.286358
                                                         0.181514       0.049699
                                                         0.070571       0.001588
                          1       3    3py               3.817591      -0.172386
                                                         2.362752      -0.175607
                                                         0.861004       0.224215
                                                         0.417525       0.286358
                                                         0.181514       0.049699
                                                         0.070571       0.001588
                          1       3    3pz               3.817591      -0.172386
                                                         2.362752      -0.175607
                                                         0.861004       0.224215
                                                         0.417525       0.286358
                                                         0.181514       0.049699
                                                         0.070571       0.001588

                          1       4    4px               3.817591       0.011373
                                                         2.362752       0.235342
                                                         0.861004      -0.175793
                                                         0.417525      -0.223923
                                                         0.181514       0.115877
                                                         0.070571       0.033489
                          1       4    4py               3.817591       0.011373
                                                         2.362752       0.235342
                                                         0.861004      -0.175793
                                                         0.417525      -0.223923
                                                         0.181514       0.115877
                                                         0.070571       0.033489
                          1       4    4pz               3.817591       0.011373
                                                         2.362752       0.235342
                                                         0.861004      -0.175793
                                                         0.417525      -0.223923
                                                         0.181514       0.115877
                                                         0.070571       0.033489

                          1       5    4dx2              3.817591       0.133631
                                                         2.362752       0.806297
                                                         0.861004       0.453606
                                                         0.417525       0.175089
                                                         0.181514       0.017666
                                                         0.070571      -0.000330
                          1       5    4dxy              3.817591       0.231456
                                                         2.362752       1.396548
                                                         0.861004       0.785669
                                                         0.417525       0.303263
                                                         0.181514       0.030598
                                                         0.070571      -0.000571
                          1       5    4dxz              3.817591       0.231456
                                                         2.362752       1.396548
                                                         0.861004       0.785669
                                                         0.417525       0.303263
                                                         0.181514       0.030598
                                                         0.070571      -0.000571
                          1       5    4dy2              3.817591       0.133631
                                                         2.362752       0.806297
                                                         0.861004       0.453606
                                                         0.417525       0.175089
                                                         0.181514       0.017666
                                                         0.070571      -0.000330
                          1       5    4dyz              3.817591       0.231456
                                                         2.362752       1.396548
                                                         0.861004       0.785669
                                                         0.417525       0.303263
                                                         0.181514       0.030598
                                                         0.070571      -0.000571
                          1       5    4dz2              3.817591       0.133631
                                                         2.362752       0.806297
                                                         0.861004       0.453606
                                                         0.417525       0.175089
                                                         0.181514       0.017666
                                                         0.070571      -0.000330

       Atomic covalent radius [Angstrom]:                                  1.020

       Atomic van der Waals radius [Angstrom]:                             1.800

     GTH Potential information for                                    GTH-PBE-q6

       Description:                       Goedecker-Teter-Hutter pseudopotential
                                           Goedecker et al., PRB 54, 1703 (1996)
                                          Hartwigsen et al., PRB 58, 3641 (1998)
                                                      Krack, TCA 114, 145 (2005)

       Gaussian exponent of the core charge distribution:               2.834467
       Electronic configuration (s p d ...):                               2   4

       Parameters of the local part of the GTH pseudopotential:

                          rloc        C1          C2          C3          C4
                        0.420000   -5.986260

       Parameters of the non-local part of the GTH pseudopotential:

                   l      r(l)      h(i,j,l)

                   0    0.364820   13.143544   -4.241830
                                   -4.241830    5.476180
                   1    0.409480    3.700891

  4. Atomic kind: H                                     Number of atoms:       3

     Orbital Basis Set                                           DZVP-MOLOPT-GTH

       Number of orbital shell sets:                                           1
       Number of orbital shells:                                               3
       Number of primitive Cartesian functions:                                7
       Number of Cartesian basis functions:                                    5
       Number of spherical basis functions:                                    5
       Norm type:                                                              2

       Normalised Cartesian orbitals:

                        Set   Shell   Orbital            Exponent    Coefficient

                          1       1    2s               11.478000       0.129129
                                                         3.700759       0.177012
                                                         1.446884       0.141285
                                                         0.716815       0.245670
                                                         0.247919       0.094768
                                                         0.066918       0.004062
                                                         0.021708      -0.000053

                          1       2    3s               11.478000      -0.079256
                                                         3.700759      -0.152992
                                                         1.446884       0.015066
                                                         0.716815      -0.331234
                                                         0.247919       0.210690
                                                         0.066918       0.058630
                                                         0.021708      -0.003429

                          1       3    3px              11.478000       0.325290
                                                         3.700759       0.187466
                                                         1.446884       0.443300
                                                         0.716815       0.267738
                                                         0.247919       0.088285
                                                         0.066918       0.019092
                                                         0.021708       0.000629
                          1       3    3py              11.478000       0.325290
                                                         3.700759       0.187466
                                                         1.446884       0.443300
                                                         0.716815       0.267738
                                                         0.247919       0.088285
                                                         0.066918       0.019092
                                                         0.021708       0.000629
                          1       3    3pz              11.478000       0.325290
                                                         3.700759       0.187466
                                                         1.446884       0.443300
                                                         0.716815       0.267738
                                                         0.247919       0.088285
                                                         0.066918       0.019092
                                                         0.021708       0.000629

       Atomic covalent radius [Angstrom]:                                  0.320

       Atomic van der Waals radius [Angstrom]:                             1.090

     GTH Potential information for                                    GTH-PBE-q1

       Description:                       Goedecker-Teter-Hutter pseudopotential
                                           Goedecker et al., PRB 54, 1703 (1996)
                                          Hartwigsen et al., PRB 58, 3641 (1998)
                                                      Krack, TCA 114, 145 (2005)

       Gaussian exponent of the core charge distribution:              12.500000
       Electronic configuration (s p d ...):                                   1

       Parameters of the local part of the GTH pseudopotential:

                          rloc        C1          C2          C3          C4
                        0.200000   -4.178900    0.724463


 MOLECULE KIND INFORMATION


 All atoms are their own molecule, skipping detailed information


 TOTAL NUMBERS AND MAXIMUM NUMBERS

  Total number of            - Atomic kinds:                                   4
                             - Atoms:                                          9
                             - Shell sets:                                     9
                             - Shells:                                        39
                             - Primitive Cartesian functions:                 62
                             - Cartesian basis functions:                     99
                             - Spherical basis functions:                     93

  Maximum angular momentum of- Orbital basis functions:                        2
                             - Local part of the GTH pseudopotential:          2
                             - Non-local part of the GTH pseudopotential:      2


 MODULE QUICKSTEP: ATOMIC COORDINATES IN ANGSTROM

   Atom Kind Element         X             Y             Z       Z(eff)     Mass
      1    1 C     6      6.088322      3.990298     24.540809   4.0000  12.0107
      2    2 N     7      6.927846      2.961796     24.434918   5.0000  14.0067
      3    1 C     6      8.185727      3.468493     24.559076   4.0000  12.0107
      4    3 S    16      9.656728      2.631022     24.333733   6.0000  32.0650
      5    2 N     7      8.109253      4.833541     24.701594   5.0000  14.0067
      6    2 N     7      6.744851      5.178227     24.827170   5.0000  14.0067
      7    4 H     1      5.012450      3.946951     24.391481   1.0000   1.0079
      8    4 H     1      8.820119      5.412285     25.141446   1.0000   1.0079
      9    4 H     1      6.470903      5.996133     24.257835   1.0000   1.0079



 SCF PARAMETERS         Density guess:                                     MOPAC
                        --------------------------------------------------------
                        max_scf:                                             500
                        max_scf_history:                                       0
                        max_diis:                                              4
                        --------------------------------------------------------
                        eps_scf:                                        1.00E-06
                        eps_scf_history:                                0.00E+00
                        eps_diis:                                       1.00E-01
                        eps_eigval:                                     1.00E-05
                        --------------------------------------------------------
                        level_shift [a.u.]:                             0.000000
                        added MOs                                        77    0
                        --------------------------------------------------------
                        Mixing method:                            BROYDEN_MIXING
                                                charge density mixing in g-space
                        --------------------------------------------------------
                        Smear method:                                FERMI_DIRAC
                        Electronic temperature [K]:                       1000.0
                        Electronic temperature [a.u.]:                  3.17E-03
                        Accuracy threshold:                             1.00E-10
                        --------------------------------------------------------
                        Outer loop SCF in use 
                        No variables optimised in outer loop
                        eps_scf                                         1.00E-06
                        max_scf                                               50
                        No outer loop optimization
                        step_size                                       5.00E-01

 PW_GRID| Information for grid number                                          1
 PW_GRID| Grid distributed over                                    48 processors
 PW_GRID| Real space group dimensions                                    48    1
 PW_GRID| the grid is blocked:                                                NO
 PW_GRID| Cutoff [a.u.]                                                    250.0
 PW_GRID| spherical cutoff:                                                   NO
 PW_GRID|   Bounds   1            -80      79                Points:         160
 PW_GRID|   Bounds   2            -80      79                Points:         160
 PW_GRID|   Bounds   3           -270     269                Points:         540
 PW_GRID| Volume element (a.u.^3)  0.2219E-02     Volume (a.u.^3)     30675.1901
 PW_GRID| Grid span                                                    FULLSPACE
 PW_GRID|   Distribution                         Average         Max         Min
 PW_GRID|   G-Vectors                           288000.0      288000      288000
 PW_GRID|   G-Rays                                1800.0        1800        1800
 PW_GRID|   Real Space Points                   288000.0      345600      259200

 PW_GRID| Information for grid number                                          2
 PW_GRID| Number of the reference grid                                         1
 PW_GRID| Grid distributed over                                    48 processors
 PW_GRID| Real space group dimensions                                    48    1
 PW_GRID| the grid is blocked:                                                NO
 PW_GRID| Cutoff [a.u.]                                                     83.3
 PW_GRID| spherical cutoff:                                                   NO
 PW_GRID|   Bounds   1            -45      44                Points:          90
 PW_GRID|   Bounds   2            -45      44                Points:          90
 PW_GRID|   Bounds   3           -160     159                Points:         320
 PW_GRID| Volume element (a.u.^3)  0.1183E-01     Volume (a.u.^3)     30675.1901
 PW_GRID| Grid span                                                    FULLSPACE
 PW_GRID|   Distribution                         Average         Max         Min
 PW_GRID|   G-Vectors                            54000.0       56070       45990
 PW_GRID|   G-Rays                                 600.0         623         511
 PW_GRID|   Real Space Points                    54000.0       57600       28800

 PW_GRID| Information for grid number                                          3
 PW_GRID| Number of the reference grid                                         1
 PW_GRID| Grid distributed over                                    48 processors
 PW_GRID| Real space group dimensions                                    48    1
 PW_GRID| the grid is blocked:                                                NO
 PW_GRID| Cutoff [a.u.]                                                     27.8
 PW_GRID| spherical cutoff:                                                   NO
 PW_GRID|   Bounds   1            -27      26                Points:          54
 PW_GRID|   Bounds   2            -27      26                Points:          54
 PW_GRID|   Bounds   3            -90      89                Points:         180
 PW_GRID| Volume element (a.u.^3)  0.5844E-01     Volume (a.u.^3)     30675.1901
 PW_GRID| Grid span                                                    FULLSPACE
 PW_GRID|   Distribution                         Average         Max         Min
 PW_GRID|   G-Vectors                            10935.0       11448       10260
 PW_GRID|   G-Rays                                 202.5         212         190
 PW_GRID|   Real Space Points                    10935.0       19440        9720

 PW_GRID| Information for grid number                                          4
 PW_GRID| Number of the reference grid                                         1
 PW_GRID| Grid distributed over                                    48 processors
 PW_GRID| Real space group dimensions                                     6    8
 PW_GRID| the grid is blocked:                                                NO
 PW_GRID| Cutoff [a.u.]                                                      9.3
 PW_GRID| spherical cutoff:                                                   NO
 PW_GRID|   Bounds   1            -15      14                Points:          30
 PW_GRID|   Bounds   2            -15      14                Points:          30
 PW_GRID|   Bounds   3            -54      53                Points:         108
 PW_GRID| Volume element (a.u.^3)  0.3156         Volume (a.u.^3)     30675.1901
 PW_GRID| Grid span                                                    FULLSPACE
 PW_GRID|   Distribution                         Average         Max         Min
 PW_GRID|   G-Vectors                             2025.0        2340        1710
 PW_GRID|   G-Rays                                  67.5          78          57
 PW_GRID|   Real Space Points                     2025.0        2160        1620

 PW_GRID| Information for grid number                                          5
 PW_GRID| Number of the reference grid                                         1
 PW_GRID| Grid distributed over                                    48 processors
 PW_GRID| Real space group dimensions                                     6    8
 PW_GRID| the grid is blocked:                                                NO
 PW_GRID| Cutoff [a.u.]                                                      3.1
 PW_GRID| spherical cutoff:                                                   NO
 PW_GRID|   Bounds   1             -9       8                Points:          18
 PW_GRID|   Bounds   2             -9       8                Points:          18
 PW_GRID|   Bounds   3            -30      29                Points:          60
 PW_GRID| Volume element (a.u.^3)   1.578         Volume (a.u.^3)     30675.1901
 PW_GRID| Grid span                                                    FULLSPACE
 PW_GRID|   Distribution                         Average         Max         Min
 PW_GRID|   G-Vectors                              405.0         486         288
 PW_GRID|   G-Rays                                  22.5          27          16
 PW_GRID|   Real Space Points                      405.0         540         360

 POISSON| Solver                                                        PERIODIC
 POISSON| Periodicity                                                        XYZ

 RS_GRID| Information for grid number                                          1
 RS_GRID|   Bounds   1            -80      79                Points:         160
 RS_GRID|   Bounds   2            -80      79                Points:         160
 RS_GRID|   Bounds   3           -270     269                Points:         540
 RS_GRID| Real space distribution over                                 48 groups
 RS_GRID| Real space distribution along direction                              3
 RS_GRID| Border size                                                         40
 RS_GRID|   Distribution                         Average         Max         Min
 RS_GRID|   Planes                                  91.2          92          91

 RS_GRID| Information for grid number                                          2
 RS_GRID|   Bounds   1            -45      44                Points:          90
 RS_GRID|   Bounds   2            -45      44                Points:          90
 RS_GRID|   Bounds   3           -160     159                Points:         320
 RS_GRID| Real space distribution over                                 48 groups
 RS_GRID| Real space distribution along direction                              3
 RS_GRID| Border size                                                         41
 RS_GRID|   Distribution                         Average         Max         Min
 RS_GRID|   Planes                                  88.7          89          88

 RS_GRID| Information for grid number                                          3
 RS_GRID|   Bounds   1            -27      26                Points:          54
 RS_GRID|   Bounds   2            -27      26                Points:          54
 RS_GRID|   Bounds   3            -90      89                Points:         180
 RS_GRID| Real space fully replicated
 RS_GRID| Group size                                                           1

 RS_GRID| Information for grid number                                          4
 RS_GRID|   Bounds   1            -15      14                Points:          30
 RS_GRID|   Bounds   2            -15      14                Points:          30
 RS_GRID|   Bounds   3            -54      53                Points:         108
 RS_GRID| Real space fully replicated
 RS_GRID| Group size                                                           1

 RS_GRID| Information for grid number                                          5
 RS_GRID|   Bounds   1             -9       8                Points:          18
 RS_GRID|   Bounds   2             -9       8                Points:          18
 RS_GRID|   Bounds   3            -30      29                Points:          60
 RS_GRID| Real space fully replicated
 RS_GRID| Group size                                                           1

 Number of electrons:                                                         32
 Number of occupied orbitals:                                                 16
 Number of molecular orbitals:                                                93

 Number of orbital functions:                                                 93
 Number of independent orbital functions:                                     93

 Extrapolation method: initial_guess


 SCF WAVEFUNCTION OPTIMIZATION

  Step     Update method      Time    Convergence         Total energy    Change
  ------------------------------------------------------------------------------

 *** WARNING in fm/cp_fm_elpa.F:522 :: Setting real_kernel for ELPA failed ***

     1 NoMix/Diag. 0.10E+00    0.7     1.33756367       -52.0105926692 -5.20E+01

 *** WARNING in fm/cp_fm_elpa.F:522 :: Setting real_kernel for ELPA failed ***

     2 Broy./Diag. 0.10E+00    1.0     0.02764231       -56.3725981976 -4.36E+00

 *** WARNING in fm/cp_fm_elpa.F:522 :: Setting real_kernel for ELPA failed ***

     3 Broy./Diag. 0.10E+00    1.0     0.23908663       -54.9156828499  1.46E+00

 *** WARNING in fm/cp_fm_elpa.F:522 :: Setting real_kernel for ELPA failed ***

     4 Broy./Diag. 0.10E+00    0.8     0.00858614       -54.6866561759  2.29E-01

 *** WARNING in fm/cp_fm_elpa.F:522 :: Setting real_kernel for ELPA failed ***

     5 Broy./Diag. 0.10E+00    0.8     0.05411157       -53.9420877446  7.45E-01

 *** WARNING in fm/cp_fm_elpa.F:522 :: Setting real_kernel for ELPA failed ***

     6 Broy./Diag. 0.10E+00    0.8     0.00306834       -53.5172222613  4.25E-01

 *** WARNING in fm/cp_fm_elpa.F:522 :: Setting real_kernel for ELPA failed ***

     7 Broy./Diag. 0.10E+00    0.9     0.03370765       -53.3730899206  1.44E-01

 *** WARNING in fm/cp_fm_elpa.F:522 :: Setting real_kernel for ELPA failed ***

     8 Broy./Diag. 0.10E+00    0.9     0.00138926       -53.2510312257  1.22E-01

 *** WARNING in fm/cp_fm_elpa.F:522 :: Setting real_kernel for ELPA failed ***

     9 Broy./Diag. 0.10E+00    0.9     0.01452746       -53.2765754422 -2.55E-02

 *** WARNING in fm/cp_fm_elpa.F:522 :: Setting real_kernel for ELPA failed ***

    10 Broy./Diag. 0.10E+00    0.9     0.00171104       -53.2394918755  3.71E-02

 *** WARNING in fm/cp_fm_elpa.F:522 :: Setting real_kernel for ELPA failed ***

    11 Broy./Diag. 0.10E+00    0.9     0.00803602       -53.2175305479  2.20E-02

 *** WARNING in fm/cp_fm_elpa.F:522 :: Setting real_kernel for ELPA failed ***

    12 Broy./Diag. 0.10E+00    0.9     0.00126278       -53.1899822853  2.75E-02

 *** WARNING in fm/cp_fm_elpa.F:522 :: Setting real_kernel for ELPA failed ***

    13 Broy./Diag. 0.10E+00    0.9     0.00402578       -53.1701958008  1.98E-02

 *** WARNING in fm/cp_fm_elpa.F:522 :: Setting real_kernel for ELPA failed ***

    14 Broy./Diag. 0.10E+00    0.9     0.00026324       -53.1616344323  8.56E-03

 *** WARNING in fm/cp_fm_elpa.F:522 :: Setting real_kernel for ELPA failed ***

    15 Broy./Diag. 0.10E+00    0.9     0.00157237       -53.1584120052  3.22E-03

 *** WARNING in fm/cp_fm_elpa.F:522 :: Setting real_kernel for ELPA failed ***

    16 Broy./Diag. 0.10E+00    0.9     0.00015349       -53.1602834617 -1.87E-03

 *** WARNING in fm/cp_fm_elpa.F:522 :: Setting real_kernel for ELPA failed ***

    17 Broy./Diag. 0.10E+00    0.9     0.00102891       -53.1660413227 -5.76E-03

 *** WARNING in fm/cp_fm_elpa.F:522 :: Setting real_kernel for ELPA failed ***

    18 Broy./Diag. 0.10E+00    0.9     0.00096163       -53.1601965848  5.84E-03

 *** WARNING in fm/cp_fm_elpa.F:522 :: Setting real_kernel for ELPA failed ***

    19 Broy./Diag. 0.10E+00    0.9     0.00026824       -53.1524629941  7.73E-03

 *** WARNING in fm/cp_fm_elpa.F:522 :: Setting real_kernel for ELPA failed ***

    20 Broy./Diag. 0.10E+00    0.9     0.00058701       -53.1501462459  2.32E-03

 *** WARNING in fm/cp_fm_elpa.F:522 :: Setting real_kernel for ELPA failed ***

    21 Broy./Diag. 0.10E+00    0.9     0.00016520       -53.1512336899 -1.09E-03

 *** WARNING in fm/cp_fm_elpa.F:522 :: Setting real_kernel for ELPA failed ***

    22 Broy./Diag. 0.10E+00    0.9     0.00033890       -53.1502919691  9.42E-04

 *** WARNING in fm/cp_fm_elpa.F:522 :: Setting real_kernel for ELPA failed ***

    23 Broy./Diag. 0.10E+00    0.9     0.00005102       -53.1495462448  7.46E-04

 *** WARNING in fm/cp_fm_elpa.F:522 :: Setting real_kernel for ELPA failed ***

    24 Broy./Diag. 0.10E+00    0.9     0.00022879       -53.1492730528  2.73E-04

 *** WARNING in fm/cp_fm_elpa.F:522 :: Setting real_kernel for ELPA failed ***

    25 Broy./Diag. 0.10E+00    0.9     0.00004336       -53.1485511647  7.22E-04

 *** WARNING in fm/cp_fm_elpa.F:522 :: Setting real_kernel for ELPA failed ***

    26 Broy./Diag. 0.10E+00    0.9     0.00012005       -53.1487734674 -2.22E-04

 *** WARNING in fm/cp_fm_elpa.F:522 :: Setting real_kernel for ELPA failed ***

    27 Broy./Diag. 0.10E+00    0.9     0.00001413       -53.1487080685  6.54E-05

 *** WARNING in fm/cp_fm_elpa.F:522 :: Setting real_kernel for ELPA failed ***

    28 Broy./Diag. 0.10E+00    0.9     0.00010779       -53.1491984035 -4.90E-04

 *** WARNING in fm/cp_fm_elpa.F:522 :: Setting real_kernel for ELPA failed ***

    29 Broy./Diag. 0.10E+00    0.9     0.00001757       -53.1493914077 -1.93E-04

 *** WARNING in fm/cp_fm_elpa.F:522 :: Setting real_kernel for ELPA failed ***

    30 Broy./Diag. 0.10E+00    0.9     0.00010551       -53.1491311177  2.60E-04

 *** WARNING in fm/cp_fm_elpa.F:522 :: Setting real_kernel for ELPA failed ***

    31 Broy./Diag. 0.10E+00    0.9     0.00000738       -53.1492201575 -8.90E-05

 *** WARNING in fm/cp_fm_elpa.F:522 :: Setting real_kernel for ELPA failed ***

    32 Broy./Diag. 0.10E+00    0.9     0.00002523       -53.1489891977  2.31E-04

 *** WARNING in fm/cp_fm_elpa.F:522 :: Setting real_kernel for ELPA failed ***

    33 Broy./Diag. 0.10E+00    0.9     0.00001259       -53.1488299866  1.59E-04

 *** WARNING in fm/cp_fm_elpa.F:522 :: Setting real_kernel for ELPA failed ***

    34 Broy./Diag. 0.10E+00    0.9     0.00000825       -53.1488315760 -1.59E-06

 *** WARNING in fm/cp_fm_elpa.F:522 :: Setting real_kernel for ELPA failed ***

    35 Broy./Diag. 0.10E+00    0.9     0.00001451       -53.1488064668  2.51E-05

 *** WARNING in fm/cp_fm_elpa.F:522 :: Setting real_kernel for ELPA failed ***

    36 Broy./Diag. 0.10E+00    0.9     0.00000664       -53.1487801434  2.63E-05

 *** WARNING in fm/cp_fm_elpa.F:522 :: Setting real_kernel for ELPA failed ***

    37 Broy./Diag. 0.10E+00    0.9     0.00000698       -53.1487612357  1.89E-05

 *** WARNING in fm/cp_fm_elpa.F:522 :: Setting real_kernel for ELPA failed ***

    38 Broy./Diag. 0.10E+00    0.9     0.00000829       -53.1487371464  2.41E-05

 *** WARNING in fm/cp_fm_elpa.F:522 :: Setting real_kernel for ELPA failed ***

    39 Broy./Diag. 0.10E+00    0.9     0.00000281       -53.1487179576  1.92E-05

 *** WARNING in fm/cp_fm_elpa.F:522 :: Setting real_kernel for ELPA failed ***

    40 Broy./Diag. 0.10E+00    0.9     0.00000962       -53.1487489968 -3.10E-05

 *** WARNING in fm/cp_fm_elpa.F:522 :: Setting real_kernel for ELPA failed ***

    41 Broy./Diag. 0.10E+00    0.9     0.00000291       -53.1487155777  3.34E-05

 *** WARNING in fm/cp_fm_elpa.F:522 :: Setting real_kernel for ELPA failed ***

    42 Broy./Diag. 0.10E+00    0.9     0.00001125       -53.1487198402 -4.26E-06

 *** WARNING in fm/cp_fm_elpa.F:522 :: Setting real_kernel for ELPA failed ***

    43 Broy./Diag. 0.10E+00    0.9     0.00000201       -53.1487240743 -4.23E-06

 *** WARNING in fm/cp_fm_elpa.F:522 :: Setting real_kernel for ELPA failed ***

    44 Broy./Diag. 0.10E+00    0.9     0.00000802       -53.1486465279  7.75E-05

 *** WARNING in fm/cp_fm_elpa.F:522 :: Setting real_kernel for ELPA failed ***

    45 Broy./Diag. 0.10E+00    0.9     0.00000093       -53.1485933659  5.32E-05

  *** SCF run converged in    45 steps ***


  Electronic density on regular grids:        -31.9999999983        0.0000000017
  Core density on regular grids:               31.9999999979       -0.0000000021
  Total charge density on r-space grids:       -0.0000000003
  Total charge density g-space grids:          -0.0000000003

  Overlap energy of the core charge distribution:               0.00000067859738
  Self energy of the core charge distribution:               -129.63284782999293
  Core Hamiltonian energy:                                     37.06277602439503
  Hartree energy:                                              53.74937693163255
  Exchange-correlation energy:                                -14.32546445491680
  Dispersion energy:                                           -0.00243352948986
  Electronic entropic energy:                                  -0.00000118617962
  Fermi energy:                                                -0.13208356366120

  Total energy:                                               -53.14859336591977

  outer SCF iter =    1 RMS gradient =   0.93E-06 energy =        -53.1485933659
  outer SCF loop converged in   1 iterations or   45 steps


 MO| EIGENVALUES AND OCCUPATION NUMBERS
 MO|
 MO|  Index      Eigenvalue [a.u.]        Eigenvalue [eV]             Occupation
 MO|      1              -1.016474             -27.659664               2.000000
 MO|      2              -0.851342             -23.166203               2.000000
 MO|      3              -0.810321             -22.049953               2.000000
 MO|      4              -0.649869             -17.683822               2.000000
 MO|      5              -0.607101             -16.520055               2.000000
 MO|      6              -0.582971             -15.863445               2.000000
 MO|      7              -0.526687             -14.331872               2.000000
 MO|      8              -0.485709             -13.216820               2.000000
 MO|      9              -0.443405             -12.065662               2.000000
 MO|     10              -0.420955             -11.454764               2.000000
 MO|     11              -0.331466              -9.019638               2.000000
 MO|     12              -0.310142              -8.439402               2.000000
 MO|     13              -0.298018              -8.109483               2.000000
 MO|     14              -0.263262              -7.163721               2.000000
 MO|     15              -0.184888              -5.031068               2.000000
 MO|     16              -0.169571              -4.614252               1.999986
 MO|     17              -0.094621              -2.574782               0.000015
 MO|     18              -0.015056              -0.409696               0.000000
 MO|     19               0.017095               0.465188               0.000000
 MO|     20               0.036004               0.979710               0.000000
 MO|     21               0.071591               1.948088               0.000000
 MO|     22               0.090472               2.461861               0.000000
 MO|     23               0.116028               3.157280               0.000000
 MO|     24               0.137631               3.745122               0.000000
 MO|     25               0.217013               5.905232               0.000000
 MO|     26               0.224796               6.117004               0.000000
 MO|     27               0.238874               6.500092               0.000000
 MO|     28               0.282873               7.697370               0.000000
 MO|     29               0.292622               7.962662               0.000000
 MO|     30               0.318349               8.662725               0.000000
 MO|     31               0.342103               9.309095               0.000000
 MO|     32               0.346995               9.442212               0.000000
 MO|     33               0.361732               9.843241               0.000000
 MO|     34               0.376240              10.238003               0.000000
 MO|     35               0.383899              10.446423               0.000000
 MO|     36               0.410585              11.172578               0.000000
 MO|     37               0.429183              11.678671               0.000000
 MO|     38               0.447087              12.165852               0.000000
 MO|     39               0.466836              12.703253               0.000000
 MO|     40               0.476999              12.979810               0.000000
 MO|     41               0.488434              13.290974               0.000000
 MO|     42               0.506797              13.790661               0.000000
 MO|     43               0.539366              14.676895               0.000000
 MO|     44               0.572138              15.568663               0.000000
 MO|     45               0.608127              16.547979               0.000000
 MO|     46               0.727984              19.809442               0.000000
 MO|     47               0.770816              20.974980               0.000000
 MO|     48               0.789982              21.496502               0.000000
 MO|     49               0.814002              22.150112               0.000000
 MO|     50               0.830107              22.588355               0.000000
 MO|     51               0.915709              24.917714               0.000000
 MO|     52               0.956181              26.019019               0.000000
 MO|     53               1.004184              27.325239               0.000000
 MO|     54               1.035017              28.164258               0.000000
 MO|     55               1.041254              28.333971               0.000000
 MO|     56               1.126839              30.662860               0.000000
 MO|     57               1.163611              31.663465               0.000000
 MO|     58               1.222609              33.268880               0.000000
 MO|     59               1.232173              33.529127               0.000000
 MO|     60               1.306685              35.556697               0.000000
 MO|     61               1.359147              36.984263               0.000000
 MO|     62               1.402460              38.162871               0.000000
 MO|     63               1.438735              39.149971               0.000000
 MO|     64               1.510939              41.114751               0.000000
 MO|     65               1.562207              42.509811               0.000000
 MO|     66               1.589866              43.262457               0.000000
 MO|     67               1.643612              44.724948               0.000000
 MO|     68               1.689882              45.984029               0.000000
 MO|     69               1.701407              46.297638               0.000000
 MO|     70               1.772122              48.221885               0.000000
 MO|     71               1.846340              50.241462               0.000000
 MO|     72               1.868340              50.840127               0.000000
 MO|     73               1.883458              51.251509               0.000000
 MO|     74               1.910529              51.988140               0.000000
 MO|     75               1.988826              54.118704               0.000000
 MO|     76               2.005494              54.572258               0.000000
 MO|     77               2.071181              56.359693               0.000000
 MO|     78               2.116269              57.586620               0.000000
 MO|     79               2.184859              59.453031               0.000000
 MO|     80               2.282611              62.113014               0.000000
 MO|     81               2.323474              63.224933               0.000000
 MO|     82               2.349698              63.938527               0.000000
 MO|     83               2.355053              64.084243               0.000000
 MO|     84               2.416895              65.767067               0.000000
 MO|     85               2.499027              68.001971               0.000000
 MO|     86               2.758192              75.054228               0.000000
 MO|     87               2.922758              79.532292               0.000000
 MO|     88               2.948095              80.221754               0.000000
 MO|     89               2.995927              81.523317               0.000000
 MO|     90               3.683669             100.237736               0.000000
 MO|     91               4.830913             131.455816               0.000000
 MO|     92               7.657722             208.377208               0.000000
 MO|     93               8.070990             219.622820               0.000000
 MO| Sum:                                                              32.000000
 MO| E(Fermi):           -0.132084 a.u.         -3.594177 eV


 !-----------------------------------------------------------------------------!
                     Mulliken Population Analysis

 #  Atom  Element  Kind  Atomic population                           Net charge
       1     C        1          3.917444                              0.082556
       2     N        2          5.155901                             -0.155901
[...]
 -------------------------------------------------------------------------------
 COUNTER                                    TOTAL       BLAS       SMM       ACC
 flops     5 x     5 x    20                12000       0.0%    100.0%      0.0%     
 flops     5 x    29 x     5                26100       0.0%    100.0%      0.0%     
 flops     5 x    20 x     5                45000       0.0%    100.0%      0.0%     
 flops     5 x    13 x    20                46800       0.0%    100.0%      0.0%     
 flops    13 x     5 x    20                46800       0.0%    100.0%      0.0%     
 flops    29 x    29 x     5                50460       0.0%    100.0%      0.0%     
 flops     5 x    32 x     5                57600       0.0%    100.0%      0.0%     
 flops    29 x    32 x     5               111360       0.0%    100.0%      0.0%     
 flops    32 x    29 x     5               111360       0.0%    100.0%      0.0%     
 flops     5 x    29 x    13               135720       0.0%    100.0%      0.0%     
 flops    13 x    29 x     5               135720       0.0%    100.0%      0.0%     
 flops     5 x    20 x    13               234000       0.0%    100.0%      0.0%     
 flops    13 x    20 x     5               234000       0.0%    100.0%      0.0%     
 flops    32 x    32 x     5               245760       0.0%    100.0%      0.0%     
 flops    29 x    29 x    13               262392       0.0%    100.0%      0.0%     
 flops    13 x    13 x    20               283920       0.0%    100.0%      0.0%     
 flops     5 x    32 x    13               299520       0.0%    100.0%      0.0%     
 flops    13 x    32 x     5               299520       0.0%    100.0%      0.0%     
 flops     5 x     5 x    29               391500       0.0%    100.0%      0.0%     
 flops    29 x    32 x    13               579072       0.0%    100.0%      0.0%     
 flops    32 x    29 x    13               579072       0.0%    100.0%      0.0%     
 flops    13 x    29 x    13               705744       0.0%    100.0%      0.0%     
 flops     5 x     5 x    32               864000       0.0%    100.0%      0.0%     
 flops    13 x    20 x    13              1216800       0.0%    100.0%      0.0%     
 flops    32 x    32 x    13              1277952       0.0%    100.0%      0.0%     
 flops     5 x    13 x    29              1526850       0.0%    100.0%      0.0%     
 flops    13 x     5 x    29              1526850       0.0%    100.0%      0.0%     
 flops    13 x    32 x    13              1557504       0.0%    100.0%      0.0%     
 flops     5 x    13 x    32              3369600       0.0%    100.0%      0.0%     
 flops    13 x     5 x    32              3369600       0.0%    100.0%      0.0%     
 flops    13 x    13 x    29              9262890       0.0%    100.0%      0.0%     
 flops    13 x    13 x    32             20442240       0.0%    100.0%      0.0%     
 flops inhomo. stacks                           0       0.0%      0.0%      0.0%
 flops total                        49.307706E+06       0.0%    100.0%      0.0%
 flops max/rank                      3.606052E+06       0.0%    100.0%      0.0%
 matmuls inhomo. stacks                         0       0.0%      0.0%      0.0%
 matmuls total                               7218       0.0%    100.0%      0.0%
 number of processed stacks                  6137       0.0%    100.0%      0.0%
 average stack size                                     0.0       1.2       0.0
 marketing flops                    22.003056E+06
 -------------------------------------------------------------------------------
 # multiplications                             72
 max memory usage/rank             835.440640E+06
 # max total images/rank                        3
 # max 3D layers                                1
 # MPI messages exchanged                   69120
 MPI messages size (bytes):
  total size                        58.761120E+06
  min size                           0.000000E+00
  max size                           8.192000E+03
  average size                     850.131958E+00
 MPI breakdown and total messages size (bytes):
             size <=      128               53324                        0
       128 < size <=     8192               15796                 58761120
      8192 < size <=    32768                   0                        0
     32768 < size <=   131072                   0                        0
    131072 < size <=  4194304                   0                        0
   4194304 < size <= 16777216                   0                        0
  16777216 < size                               0                        0
 -------------------------------------------------------------------------------

 *** WARNING in dbcsr_mm.F:301 :: Using a non-square number of MPI ranks ***
 *** might lead to poor performance. Used ranks: 48 Suggested: 49 100    ***

 -------------------------------------------------------------------------------
 -                                                                             -
 -                      DBCSR MESSAGE PASSING PERFORMANCE                      -
 -                                                                             -
 -------------------------------------------------------------------------------
 ROUTINE             CALLS      AVE VOLUME [Bytes]
 MP_Bcast               33                     12.
 MP_Allreduce          513                     11.
 MP_Alltoall          1625                   6745.
 MP_ISend             3346                    752.
 MP_IRecv             3322                    497.
 -------------------------------------------------------------------------------

 -------------------------------------------------------------------------------
 -                                                                             -
 -                                DBM STATISTICS                               -
 -                                                                             -
 -------------------------------------------------------------------------------
    M  x    N  x    K                                          COUNT     PERCENT
 -------------------------------------------------------------------------------

 -------------------------------------------------------------------------------
 -                                                                             -
 -                                GRID STATISTICS                              -
 -                                                                             -
 -------------------------------------------------------------------------------
 LP    KERNEL             BACKEND                              COUNT     PERCENT
 4     collocate general  CPU                                  79618      21.07%
 4     integrate general  CPU                                  79618      21.07%
 3     collocate general  CPU                                  77832      20.60%
 3     integrate general  CPU                                  77832      20.60%
 2     collocate general  CPU                                  30849       8.17%
 2     integrate general  CPU                                  30644       8.11%
 0     collocate general  CPU                                    864       0.23%
 0     integrate general  CPU                                    432       0.11%
 1     collocate general  CPU                                    105       0.03%
 -------------------------------------------------------------------------------

 MEMORY| Estimated peak process memory [MiB]                                 797

 -------------------------------------------------------------------------------
 ----                             MULTIGRID INFO                            ----
 -------------------------------------------------------------------------------
 count for grid        1:        1610373          cutoff [a.u.]          250.00
 count for grid        2:         879562          cutoff [a.u.]           83.33
 count for grid        3:         570909          cutoff [a.u.]           27.78
 count for grid        4:         399612          cutoff [a.u.]            9.26
 count for grid        5:          86430          cutoff [a.u.]            3.09
 total gridlevel count  :        3546886

 -------------------------------------------------------------------------------
 -                                                                             -
 -                         MESSAGE PASSING PERFORMANCE                         -
 -                                                                             -
 -------------------------------------------------------------------------------

 ROUTINE             CALLS      AVE VOLUME [Bytes]
 MP_Group               10
 MP_Bcast              232                3234589.
 MP_Allreduce         1203                   2673.
 MP_Sync                67
 MP_Alltoall          1305                7837204.
 MP_SendRecv          7332                  59040.
 MP_ISendRecv         6627                  59040.
 MP_Wait             19779
 MP_ISend            11850                 207271.
 MP_IRecv            11850                 207086.
 -------------------------------------------------------------------------------


 -------------------------------------------------------------------------------
 -                                                                             -
 -                           R E F E R E N C E S                               -
 -                                                                             -
 -------------------------------------------------------------------------------
 
 CP2K version 2024.3, the CP2K developers group (2024).
 CP2K is freely available from https://www.cp2k.org/ .
 
 T. D. Kuehne, M. Iannuzzi, M. Del Ben, V. V. Rybkin, P. Seewald, F. Stein, T. 
 Laino, R. Z. Khaliullin, O. Schuett, F. Schiffmann, D. Golze, J. Wilhelm, S. 
 Chulkov, M. H. Bani-Hashemian, V. Weber, U. Borstnik, M. Taillefumier, A. S. 
 Jakobovits, A. Lazzaro, H. Pabst, T. Mueller, R. Schade, M. Guidon, S. 
 Andermatt, N. Holmberg, G. K. Schenter, A. Hehn, A. Bussy, F. Belleflamme, G. 
 Tabacchi, A. Gloess, M. Lass, I. Bethune, C. J. Mundy, C. Plessl, M. Watkins, 
 J. VandeVondele, M. Krack, J. Hutter.
 J. Chem. Phys. 152, 194103 (2020).
 CP2K: An electronic structure and molecular dynamics software package - 
 Quickstep: Efficient and accurate electronic structure calculations.
 https://doi.org/10.1063/5.0007045

 L. Goerigk, A. Hansen, C. Bauer, S. Ehrlich, A. Najibi, S. Grimme.
 Phys. Chem. Chem. Phys. 19, 32184-32215 (2017).
 A look at the density functional theory zoo with the advanced GMTKN55 database 
 for general main group thermochemistry, kinetics and noncovalent interactions.
 https://doi.org/10.1039/C7CP04913G

 O. Schuett, P. Messmer, J. Hutter, J. VandeVondele.
 Electronic Structure Calculations on Graphics Processing Units, 173-190 (2016).
 GPU-Accelerated Sparse Matrix-Matrix Multiplication for Linear Scaling Density 
 Functional Theory.
 https://doi.org/10.1002/9781118670712.ch8

 A. Heinecke, G. Henry, M. Hutchinson, H. Pabst.
 Proceedings of Intl. Supercomputing Conference, 981-991 (2016).
 LIBXSMM: Accelerating Small Matrix Multiplications by Runtime Code Generation.
 https://doi.org/10.1109/SC.2016.83

 J. Hutter, M. Iannuzzi, F. Schiffmann, J. VandeVondele.
 WIREs Comput Mol Sci. 4, 15-25 (2014).
 CP2K: atomistic simulations of condensed matter systems.
 https://doi.org/10.1002/wcms.1159

 U. Borstnik, J. VandeVondele, V. Weber, J. Hutter.
 Parallel Comput. 40, 47-58 (2014).
 Sparse matrix multiplication: The distributed block-compressed sparse row 
 library.
 https://doi.org/10.1016/j.parco.2014.03.012

 A. Marek, V. Blum, R. Johanni, V. Havu, B. Lang, T. Auckenthaler, A. Heinecke, 
 H. Bungartz, H. Lederer.
 J. Phys. Condens. Matter 26, 213201 (2014).
 The ELPA library: scalable parallel eigenvalue solutions for electronic 
 structure theory and computational science.
 https://doi.org/10.1088/0953-8984/26/21/213201

 S. Grimme, S. Ehrlich, L. Goerigk.
 J. Comput. Chem. 32, 1456 (2011).
 Effect of the damping function in dispersion corrected density functional 
 theory.
 https://doi.org/10.1002/jcc.21759

 S. Grimme, J. Antony, S. Ehrlich, H. Krieg.
 J. Chem. Phys. 132, 154104 (2010).
 A consistent and accurate ab initio parametrization of density functional 
 dispersion correction (DFT-D) for the 94 elements H-Pu.
 https://doi.org/10.1063/1.3382344

 J. VandeVondele, J. Hutter.
 J. Chem. Phys. 127, 114105 (2007).
 Gaussian basis sets for accurate calculations on molecular systems in gas and 
 condensed phases.
 https://doi.org/10.1063/1.2770708

 J. VandeVondele, M. Krack, F. Mohamed, M. Parrinello, T. Chassaing, J. Hutter.
 Comput. Phys. Commun. 167, 103-128 (2005).
 QUICKSTEP: Fast and accurate density functional calculations using a mixed 
 Gaussian and plane waves approach.
 https://doi.org/10.1016/j.cpc.2004.12.014

 M. Krack.
 Theor. Chem. Acc. 114, 145-152 (2005).
 Pseudopotentials for H to Kr optimized for gradient-corrected 
 exchange-correlation functionals.
 https://doi.org/10.1007/s00214-005-0655-y

 M. Frigo, S. G. Johnson.
 Proc. IEEE 93, 216-231 (2005).
 The design and implementation of FFTW3.
 https://doi.org/10.1109/JPROC.2004.840301

 J. VandeVondele, J. Hutter.
 J. Chem. Phys. 118, 4365-4369 (2003).
 An efficient orbital transformation method for electronic structure 
 calculations.
 https://doi.org/10.1063/1.1543154

 C. Hartwigsen, S. Goedecker, J. Hutter.
 Phys. Rev. B 58, 3641-3662 (1998).
 Relativistic separable dual-space Gaussian pseudopotentials from H to Rn.
 https://doi.org/10.1103/PhysRevB.58.3641

 G. Lippert, J. Hutter, M. Parrinello.
 Mol. Phys. 92, 477-487 (1997).
 A hybrid Gaussian and plane wave density functional scheme.
 https://doi.org/10.1080/002689797170220

 S. Goedecker, M. Teter, J. Hutter.
 Phys. Rev. B 54, 1703-1710 (1996).
 Separable dual-space Gaussian pseudopotentials.
 https://doi.org/10.1103/PhysRevB.54.1703

 J. P. Perdew, K. Burke, M. Ernzerhof.
 Phys. Rev. Lett. 77, 3865-3868 (1996).
 Generalized gradient approximation made simple.
 https://doi.org/10.1103/PhysRevLett.77.3865


 -------------------------------------------------------------------------------
 -                                                                             -
 -                                T I M I N G                                  -
 -                                                                             -
 -------------------------------------------------------------------------------
 SUBROUTINE                       CALLS  ASD         SELF TIME        TOTAL TIME
                                MAXIMUM       AVERAGE  MAXIMUM  AVERAGE  MAXIMUM
 CP2K                                 1  1.0    0.018    0.028   55.672   55.672
 qs_energies                          1  2.0    0.000    0.001   55.380   55.381
 scf_env_do_scf                       1  3.0    0.000    0.000   39.746   39.746
 scf_env_do_scf_inner_loop           45  4.0    0.001    0.003   39.746   39.746
 qs_ks_update_qs_env                 46  5.0    0.000    0.001   25.157   25.873
 rebuild_ks_matrix                   46  6.0    0.000    0.000   25.154   25.870
 qs_ks_build_kohn_sham_matrix        46  7.0    0.007    0.008   25.154   25.870
 fft_wrap_pw1pw2                    991  9.7    0.014    0.017   20.228   20.632
 fft_wrap_pw1pw2_250                595 11.0    0.575    0.688   19.238   19.779
 fft3d_ps                           991 11.7    7.065    9.441   15.787   17.026
 active_space_main                    1  3.0    0.002    0.003   15.113   15.114
 qs_vxc_create                       46  8.0    0.001    0.002   13.861   14.086
 xc_vxc_pw_create                    46  9.0    0.098    0.123   13.860   14.085
 rsdft_embedding                      1  4.0    0.002    0.002   12.540   12.540
 mp_bcast_av                        531  1.0    0.002    0.002   11.382   11.625
 mp_bcast_i                         532  2.0   11.381   11.623   11.381   11.623
 readbuffer_s                         4  6.0    0.242   11.621    0.242   11.621
 send_fock_to_client                  1  5.0    0.000    0.000   11.619   11.619
 xc_pw_derive                       276 11.0    0.003    0.004   10.267   10.671
 mp_alltoall_z22v                   991 13.7    7.198   10.343    7.198   10.343
 qs_rho_update_rho_low               47  5.0    0.000    0.000    9.060    9.060
 calculate_rho_elec                  47  6.0    0.047    0.056    9.059    9.060
 integrate_v_rspace                  47  9.0    0.001    0.002    8.133    8.865
 sum_up_and_integrate                46  8.0    0.001    0.001    8.019    8.719
 density_rs2pw                       47  7.0    0.002    0.002    7.431    7.809
 xc_pw_divergence                    46 10.0    0.001    0.002    6.831    7.060
 xc_rho_set_and_dset_create          46 10.0    0.094    0.132    6.601    6.916
 x_to_yz                            435 12.9    0.816    1.186    4.676    6.123
 mp_waitany                       11850 11.3    5.030    6.103    5.030    6.103
 potential_pw2rs                     47 10.0    0.004    0.005    5.760    5.818
 gspace_mixing                       44  5.0    0.044    0.052    5.660    5.660
 yz_to_x                            358 12.7    0.643    0.821    3.971    5.370
 transfer_rs2pw                     262  7.8    0.003    0.004    4.360    4.814
 broyden_mixing                      44  6.0    3.157    3.740    3.940    4.036
 transfer_pw2rs                     236 11.0    0.002    0.003    3.738    3.746
 transfer_rs2pw_250                  54  8.8    0.415    0.693    3.215    3.663
 grid_collocate_task_list            47  7.0    1.300    3.377    1.300    3.377
 qs_scf_new_mos                      45  5.0    0.000    0.000    0.982    3.253
 grid_integrate_task_list            47 10.0    0.359    3.100    0.359    3.100
 mp_alltoall_d11v                   781  9.2    2.016    3.013    2.016    3.013
 rs_gather_matrices                  47 10.0    0.000    0.001    2.013    3.011
 copy_dbcsr_to_fm                    61  6.1    0.001    0.001    0.735    3.006
 mp_alltoall_i22                    229  8.9    0.719    2.991    0.719    2.991
 dbcsr_desymmetrize_deep             61  7.1    0.001    0.001    0.712    2.982
 calculate_eri_gpw                    1  4.0    0.002    0.002    2.536    2.537
 transfer_pw2rs_250                  48 11.9    0.534    0.933    2.200    2.452
 mp_sum_d                           899  4.7    1.324    2.139    1.324    2.139
 pw_poisson_solve                    61  7.3    0.001    0.002    1.736    1.930
 pw_scatter_p                       529 12.1    1.749    1.839    1.749    1.839
 pw_derive                          459 10.9    1.561    1.824    1.561    1.824
 pw_gather_p                        462 11.3    1.505    1.794    1.505    1.794
 xc_functional_eval                  46 11.0    0.000    0.001    1.417    1.768
 pbe_lda_eval                        46 12.0    1.417    1.767    1.417    1.767
 pw_poisson_set                      63  8.2    0.002    0.002    1.047    1.275
 pw_copy                            816 10.2    0.933    1.131    0.933    1.131
 transfer_pw2rs_90                   47 12.0    0.093    0.160    0.820    1.124
 -------------------------------------------------------------------------------

 The number of warnings for this run is : 48
 
 -------------------------------------------------------------------------------
  **** **** ******  **  PROGRAM ENDED AT                 2024-11-02 09:18:02.903
 ***** ** ***  *** **   PROGRAM RAN ON                              61424b489943
 **    ****   ******    PROGRAM RAN BY                                 <unknown>
 ***** **    ** ** **   PROGRAM PROCESS ID                                   587
  **** **  *******  **  PROGRAM STOPPED IN                                  /mnt
