 DBCSR| CPU Multiplication driver                                           XSMM (U)
 DBCSR| Multrec recursion limit                                              512 (U)
 DBCSR| Multiplication stack size                                           1000 (D)
 DBCSR| Maximum elements for images                                    UNLIMITED (U)
 DBCSR| Multiplicative factor virtual images                                   1 (U)
 DBCSR| Use multiplication densification                                       T (D)
 DBCSR| Multiplication size stacks                                             3 (U)
 DBCSR| Use memory pool for CPU allocation                                     F (U)
 DBCSR| Number of 3D layers                                               SINGLE (U)
 DBCSR| Use MPI memory allocation                                              F (U)
 DBCSR| Use RMA algorithm                                                      F (U)
 DBCSR| Use Communication thread                                               T (U)
 DBCSR| Communication thread load                                             83 (D)
 DBCSR| MPI: My process id                                                     0
 DBCSR| MPI: Number of processes                                               8
 DBCSR| OMP: Current number of threads                                         2
 DBCSR| OMP: Max number of threads                                             2
 DBCSR| Split modifier for TAS multiplication algorithm                  1.0E+00 (U)


  **** **** ******  **  PROGRAM STARTED AT               2024-08-12 20:28:55.131
 ***** ** ***  *** **   PROGRAM STARTED ON                          0369ef120528
 **    ****   ******    PROGRAM STARTED BY                             <unknown>
 ***** **    ** ** **   PROGRAM PROCESS ID                                383404
  **** **  *******  **  PROGRAM STARTED IN                      /workspace/Al111

 CP2K| version string:                                       CP2K version 2024.1
 CP2K| source code revision number:                                  git:b4a17a5
 CP2K| cp2kflags: omp libint fftw3 libxc libgrpp pexsi elpa parallel scalapack c
 CP2K|            osma quip xsmm plumed2 spglib sirius libvori libbqb libtorch l
 CP2K|            libvdwxc hdf5
 CP2K| is freely available from                            https://www.cp2k.org/
 CP2K| Program compiled at                          Tue Jan  9 15:07:54 UTC 2024
 CP2K| Program compiled on                                       buildkitsandbox
 CP2K| Program compiled for                                                local
 CP2K| Data directory path                                        /opt/cp2k/data
 CP2K| Input file name                                                 Al111.inp

 GLOBAL| Force Environment number                                              1
 GLOBAL| Basis set file name                         /opt/cp2k/data/BASIS_MOLOPT
 GLOBAL| Potential file name                       /opt/cp2k/data/GTH_POTENTIALS
 GLOBAL| MM Potential file name                                     MM_POTENTIAL
 GLOBAL| Coordinate file name                                          Al111.xyz
 GLOBAL| Method name                                                        CP2K
 GLOBAL| Project name                                                      Al111
 GLOBAL| Run type                                                         ENERGY
 GLOBAL| FFT library                                                       FFTW3
 GLOBAL| Diagonalization library                                            ELPA
 GLOBAL| DGEMM library                                                      BLAS
 GLOBAL| Minimum number of eigenvectors for ELPA usage                        16
 GLOBAL| Orthonormality check for eigenvectors                          DISABLED
 GLOBAL| Matrix multiplication library                                     COSMA
 GLOBAL| All-to-all communication in single precision                          F
 GLOBAL| FFTs using library dependent lengths                                  F
 GLOBAL| Grid backend                                                       AUTO
 GLOBAL| Global print level                                               MEDIUM
 GLOBAL| MPI I/O enabled                                                       T
 GLOBAL| Total number of message passing processes                             8
 GLOBAL| Number of threads for this process                                    2
 GLOBAL| This output is from process                                           0
 GLOBAL| Stack size for threads created by OpenMP (OMP_STACKSIZE)        default
 GLOBAL| CPU model name                    Intel(R) Xeon(R) W-2295 CPU @ 3.00GHz
 GLOBAL| CPUID                                                              1003
 GLOBAL| Compiled for CPUID                                                    0

 *** HINT in environment.F:920 :: The compiler target flags (generic) used ***
 *** to build this binary cannot exploit all extensions of this CPU model  ***
 *** (x86_avx512). Consider compiler target flags as part of FCFLAGS and   ***
 *** CFLAGS (ARCH file).                                                   ***


 MEMORY| system memory details [Kb]
 MEMORY|                        rank 0           min           max       average
 MEMORY| MemTotal            197536456     197536456     197536456     197536456
 MEMORY| MemFree             156160872     156160872     156160872     156160872
 MEMORY| Buffers               1245736       1245736       1245736       1245736
 MEMORY| Cached               26755512      26755512      26755512      26755512
 MEMORY| Slab                  2825068       2825068       2825068       2825068
 MEMORY| SReclaimable          2101820       2101820       2101820       2101820
 MEMORY| MemLikelyFree       186263940     186263940     186263940     186263940


 *** Fundamental physical constants (SI units) ***

 *** Literature: B. J. Mohr and B. N. Taylor,
 ***             CODATA recommended values of the fundamental physical
 ***             constants: 2006, Web Version 5.1
 ***             http://physics.nist.gov/constants

 Speed of light in vacuum [m/s]                             2.99792458000000E+08
 Magnetic constant or permeability of vacuum [N/A**2]       1.25663706143592E-06
 Electric constant or permittivity of vacuum [F/m]          8.85418781762039E-12
 Planck constant (h) [J*s]                                  6.62606896000000E-34
 Planck constant (h-bar) [J*s]                              1.05457162825177E-34
 Elementary charge [C]                                      1.60217648700000E-19
 Electron mass [kg]                                         9.10938215000000E-31
 Electron g factor [ ]                                     -2.00231930436220E+00
 Proton mass [kg]                                           1.67262163700000E-27
 Fine-structure constant                                    7.29735253760000E-03
 Rydberg constant [1/m]                                     1.09737315685270E+07
 Avogadro constant [1/mol]                                  6.02214179000000E+23
 Boltzmann constant [J/K]                                   1.38065040000000E-23
 Atomic mass unit [kg]                                      1.66053878200000E-27
 Bohr radius [m]                                            5.29177208590000E-11

 *** Conversion factors ***

 [u] -> [a.u.]                                              1.82288848426455E+03
 [Angstrom] -> [Bohr] = [a.u.]                              1.88972613288564E+00
 [a.u.] = [Bohr] -> [Angstrom]                              5.29177208590000E-01
 [a.u.] -> [s]                                              2.41888432650478E-17
 [a.u.] -> [fs]                                             2.41888432650478E-02
 [a.u.] -> [J]                                              4.35974393937059E-18
 [a.u.] -> [N]                                              8.23872205491840E-08
 [a.u.] -> [K]                                              3.15774647902944E+05
 [a.u.] -> [kJ/mol]                                         2.62549961709828E+03
 [a.u.] -> [kcal/mol]                                       6.27509468713739E+02
 [a.u.] -> [Pa]                                             2.94210107994716E+13
 [a.u.] -> [bar]                                            2.94210107994716E+08
 [a.u.] -> [atm]                                            2.90362800883016E+08
 [a.u.] -> [eV]                                             2.72113838565563E+01
 [a.u.] -> [Hz]                                             6.57968392072181E+15
 [a.u.] -> [1/cm] (wave numbers)                            2.19474631370540E+05
 [a.u./Bohr**2] -> [1/cm]                                   5.14048714338585E+03
 

 CELL_TOP| Volume [angstrom^3]:                                      1129.871809
 CELL_TOP| Vector a [angstrom     5.665     0.000     0.000   |a| =     5.664823
 CELL_TOP| Vector b [angstrom     2.453     4.249     0.000   |b| =     4.905881
 CELL_TOP| Vector c [angstrom     0.000     0.000    46.946   |c| =    46.945636
 CELL_TOP| Angle (b,c), alpha [degree]:                                90.000000
 CELL_TOP| Angle (a,c), beta  [degree]:                                90.000000
 CELL_TOP| Angle (a,b), gamma [degree]:                                60.000000
 CELL_TOP| Numerically orthorhombic:                                          NO
 CELL_TOP| Periodicity                                                       XYZ

 GENERATE|  Preliminary Number of Bonds generated:                             0
 GENERATE|  Achieved consistency in connectivity generation.

 CELL| Volume [angstrom^3]:                                          1129.871809
 CELL| Vector a [angstrom]:       5.665     0.000     0.000   |a| =     5.664823
 CELL| Vector b [angstrom]:       2.453     4.249     0.000   |b| =     4.905881
 CELL| Vector c [angstrom]:       0.000     0.000    46.946   |c| =    46.945636
 CELL| Angle (b,c), alpha [degree]:                                    90.000000
 CELL| Angle (a,c), beta  [degree]:                                    90.000000
 CELL| Angle (a,b), gamma [degree]:                                    60.000000
 CELL| Numerically orthorhombic:                                              NO
 CELL| Periodicity                                                           XYZ

 CELL_REF| Volume [angstrom^3]:                                      1129.871809
 CELL_REF| Vector a [angstrom     5.665     0.000     0.000   |a| =     5.664823
 CELL_REF| Vector b [angstrom     2.453     4.249     0.000   |b| =     4.905881
 CELL_REF| Vector c [angstrom     0.000     0.000    46.946   |c| =    46.945636
 CELL_REF| Angle (b,c), alpha [degree]:                                90.000000
 CELL_REF| Angle (a,c), beta  [degree]:                                90.000000
 CELL_REF| Angle (a,b), gamma [degree]:                                60.000000
 CELL_REF| Numerically orthorhombic:                                          NO
 CELL_REF| Periodicity                                                       XYZ

 *******************************************************************************
 *******************************************************************************
 **                                                                           **
 **     #####                         ##              ##                      **
 **    ##   ##            ##          ##              ##                      **
 **   ##     ##                       ##            ######                    **
 **   ##     ##  ##   ##  ##   #####  ##  ##   ####   ##    #####    #####    **
 **   ##     ##  ##   ##  ##  ##      ## ##   ##      ##   ##   ##  ##   ##   **
 **   ##  ## ##  ##   ##  ##  ##      ####     ###    ##   ######   ######    **
 **    ##  ###   ##   ##  ##  ##      ## ##      ##   ##   ##       ##        **
 **     #######   #####   ##   #####  ##  ##  ####    ##    #####   ##        **
 **           ##                                                    ##        **
 **                                                                           **
 **                                                ... make the atoms dance   **
 **                                                                           **
 **            Copyright (C) by CP2K developers group (2000-2024)             **
 **                      J. Chem. Phys. 152, 194103 (2020)                    **
 **                                                                           **
 *******************************************************************************

 DFT| Spin restricted Kohn-Sham (RKS) calculation                            RKS
 DFT| Multiplicity                                                             1
 DFT| Number of spin states                                                    1
 DFT| Charge                                                                   0
 DFT| Self-interaction correction (SIC)                                       NO
 DFT| Cutoffs: density                                              1.000000E-10
 DFT|          gradient                                             1.000000E-10
 DFT|          tau                                                  1.000000E-10
 DFT|          cutoff_smoothing_range                               0.000000E+00
 DFT| XC density smoothing                                                  NONE
 DFT| XC derivatives                                                          PW

 FUNCTIONAL| PADE:
 FUNCTIONAL| S. Goedecker, M. Teter and J. Hutter, Phys. Rev. B 54, 1703 (1996) 


 QS| Method:                                                                 GPW
 QS| Density plane wave grid type                        NON-SPHERICAL FULLSPACE
 QS| Number of grid levels:                                                    5
 QS| Density cutoff [a.u.]:                                                200.0
 QS| Multi grid cutoff [a.u.]: 1) grid level                               200.0
 QS|                           2) grid level                                66.7
 QS|                           3) grid level                                22.2
 QS|                           4) grid level                                 7.4
 QS|                           5) grid level                                 2.5
 QS| Grid level progression factor:                                          3.0
 QS| Relative density cutoff [a.u.]:                                        30.0
 QS| Interaction thresholds: eps_pgf_orb:                                1.0E-06
 QS|                         eps_filter_matrix:                          0.0E+00
 QS|                         eps_core_charge:                            1.0E-14
 QS|                         eps_rho_gspace:                             1.0E-12
 QS|                         eps_rho_rspace:                             1.0E-12
 QS|                         eps_gvg_rspace:                             1.0E-06
 QS|                         eps_ppl:                                    1.0E-02
 QS|                         eps_ppnl:                                   1.0E-08


 ATOMIC KIND INFORMATION

  1. Atomic kind: Al                                    Number of atoms:      16

     Orbital Basis Set                                        DZVP-MOLOPT-SR-GTH

       Number of orbital shell sets:                                           1
       Number of orbital shells:                                               5
       Number of primitive Cartesian functions:                                4
       Number of Cartesian basis functions:                                   14
       Number of spherical basis functions:                                   13
       Norm type:                                                              2

       Normalised Cartesian orbitals:

                        Set   Shell   Orbital            Exponent    Coefficient

                          1       1    2s                1.212902       0.147703
                                                         0.454181       0.176942
                                                         0.242419      -0.255412
                                                         0.078268      -0.047918

                          1       2    3s                1.212902      -0.205401
                                                         0.454181      -0.282784
                                                         0.242419       0.451246
                                                         0.078268      -0.188270

                          1       3    3px               1.212902       0.054477
                                                         0.454181       0.028713
                                                         0.242419      -0.164201
                                                         0.078268      -0.027375
                          1       3    3py               1.212902       0.054477
                                                         0.454181       0.028713
                                                         0.242419      -0.164201
                                                         0.078268      -0.027375
                          1       3    3pz               1.212902       0.054477
                                                         0.454181       0.028713
                                                         0.242419      -0.164201
                                                         0.078268      -0.027375

                          1       4    4px               1.212902      -0.161995
                                                         0.454181       0.034524
                                                         0.242419       0.284421
                                                         0.078268      -0.077718
                          1       4    4py               1.212902      -0.161995
                                                         0.454181       0.034524
                                                         0.242419       0.284421
                                                         0.078268      -0.077718
                          1       4    4pz               1.212902      -0.161995
                                                         0.454181       0.034524
                                                         0.242419       0.284421
                                                         0.078268      -0.077718

                          1       5    4dx2              1.212902       0.283929
                                                         0.454181       0.086552
                                                         0.242419       0.083045
                                                         0.078268       0.004803
                          1       5    4dxy              1.212902       0.491779
                                                         0.454181       0.149912
                                                         0.242419       0.143839
                                                         0.078268       0.008319
                          1       5    4dxz              1.212902       0.491779
                                                         0.454181       0.149912
                                                         0.242419       0.143839
                                                         0.078268       0.008319
                          1       5    4dy2              1.212902       0.283929
                                                         0.454181       0.086552
                                                         0.242419       0.083045
                                                         0.078268       0.004803
                          1       5    4dyz              1.212902       0.491779
                                                         0.454181       0.149912
                                                         0.242419       0.143839
                                                         0.078268       0.008319
                          1       5    4dz2              1.212902       0.283929
                                                         0.454181       0.086552
                                                         0.242419       0.083045
                                                         0.078268       0.004803

       Atomic covalent radius [Angstrom]:                                  1.180

       Atomic van der Waals radius [Angstrom]:                             1.840

     GTH Potential information for                                    GTH-LDA-q3

       Description:                       Goedecker-Teter-Hutter pseudopotential
                                           Goedecker et al., PRB 54, 1703 (1996)
                                          Hartwigsen et al., PRB 58, 3641 (1998)
                                                      Krack, TCA 114, 145 (2005)

       Gaussian exponent of the core charge distribution:               2.469136
       Electronic configuration (s p d ...):                               2   1

       Parameters of the local part of the GTH pseudopotential:

                          rloc        C1          C2          C3          C4
                        0.450000   -8.491351

       Parameters of the non-local part of the GTH pseudopotential:

                   l      r(l)      h(i,j,l)

                   0    0.460104    5.088340   -1.037843
                                   -1.037843    2.679700
                   1    0.536744    2.193438


 MOLECULE KIND INFORMATION


 All atoms are their own molecule, skipping detailed information


 TOTAL NUMBERS AND MAXIMUM NUMBERS

  Total number of            - Atomic kinds:                                   1
                             - Atoms:                                         16
                             - Shell sets:                                    16
                             - Shells:                                        80
                             - Primitive Cartesian functions:                 64
                             - Cartesian basis functions:                    224
                             - Spherical basis functions:                    208

  Maximum angular momentum of- Orbital basis functions:                        2
                             - Local part of the GTH pseudopotential:          0
                             - Non-local part of the GTH pseudopotential:      2


 MODULE QUICKSTEP: ATOMIC COORDINATES IN ANGSTROM

   Atom Kind Element         X             Y             Z       Z(eff)     Mass
      1    1 Al   13      0.000000     -0.000000      9.974396   3.0000  26.9815
      2    1 Al   13      2.832411     -0.000000      9.974396   3.0000  26.9815
      3    1 Al   13      1.416206      2.452940      9.974396   3.0000  26.9815
      4    1 Al   13      4.248617      2.452940      9.974396   3.0000  26.9815
      5    1 Al   13      1.416206      0.817647     12.306677   3.0000  26.9815
      6    1 Al   13      4.248617      0.817647     12.306677   3.0000  26.9815
      7    1 Al   13      2.832411      3.270587     12.306677   3.0000  26.9815
      8    1 Al   13      5.664823      3.270587     12.306677   3.0000  26.9815
      9    1 Al   13     -0.000001      1.635294     14.625497   3.0000  26.9815
     10    1 Al   13      2.832411      1.635294     14.625494   3.0000  26.9815
     11    1 Al   13      1.416206      4.088232     14.625498   3.0000  26.9815
     12    1 Al   13      4.248617      4.088233     14.625494   3.0000  26.9815
     13    1 Al   13     -0.000004     -0.000002     16.959567   3.0000  26.9815
     14    1 Al   13      2.832416     -0.000000     16.959568   3.0000  26.9815
     15    1 Al   13      1.416204      2.452942     16.959567   3.0000  26.9815
     16    1 Al   13      4.248619      2.452942     16.959567   3.0000  26.9815



 SCF PARAMETERS         Density guess:                                    ATOMIC
                        --------------------------------------------------------
                        max_scf:                                             100
                        max_scf_history:                                       0
                        max_diis:                                              4
                        --------------------------------------------------------
                        eps_scf:                                        1.00E-06
                        eps_scf_history:                                0.00E+00
                        eps_diis:                                       1.00E-01
                        eps_eigval:                                     1.00E-05
                        --------------------------------------------------------
                        level_shift [a.u.]:                             0.000000
                        added MOs                                        10    0
                        --------------------------------------------------------
                        Mixing method:                            BROYDEN_MIXING
                                                charge density mixing in g-space
                        --------------------------------------------------------
                        No outer SCF

 PW_GRID| Information for grid number                                          1
 PW_GRID| Grid distributed over                                     8 processors
 PW_GRID| Real space group dimensions                                     8    1
 PW_GRID| the grid is blocked:                                                NO
 PW_GRID| Cutoff [a.u.]                                                    200.0
 PW_GRID| spherical cutoff:                                                   NO
 PW_GRID|   Bounds   1            -36      35                Points:          72
 PW_GRID|   Bounds   2            -30      29                Points:          60
 PW_GRID|   Bounds   3           -288     287                Points:         576
 PW_GRID| Volume element (a.u.^3)  0.3064E-02     Volume (a.u.^3)      7624.7530
 PW_GRID| Grid span                                                    FULLSPACE
 PW_GRID|   Distribution                         Average         Max         Min
 PW_GRID|   G-Vectors                           311040.0      311040      311040
 PW_GRID|   G-Rays                                4320.0        4320        4320
 PW_GRID|   Real Space Points                   311040.0      311040      311040

 PW_GRID| Information for grid number                                          2
 PW_GRID| Number of the reference grid                                         1
 PW_GRID| Grid distributed over                                     8 processors
 PW_GRID| Real space group dimensions                                     8    1
 PW_GRID| the grid is blocked:                                                NO
 PW_GRID| Cutoff [a.u.]                                                     66.7
 PW_GRID| spherical cutoff:                                                   NO
 PW_GRID|   Bounds   1            -20      19                Points:          40
 PW_GRID|   Bounds   2            -18      17                Points:          36
 PW_GRID|   Bounds   3           -180     179                Points:         360
 PW_GRID| Volume element (a.u.^3)  0.1471E-01     Volume (a.u.^3)      7624.7530
 PW_GRID| Grid span                                                    FULLSPACE
 PW_GRID|   Distribution                         Average         Max         Min
 PW_GRID|   G-Vectors                            64800.0       64920       64680
 PW_GRID|   G-Rays                                1620.0        1623        1617
 PW_GRID|   Real Space Points                    64800.0       64800       64800

 PW_GRID| Information for grid number                                          3
 PW_GRID| Number of the reference grid                                         1
 PW_GRID| Grid distributed over                                     8 processors
 PW_GRID| Real space group dimensions                                     8    1
 PW_GRID| the grid is blocked:                                                NO
 PW_GRID| Cutoff [a.u.]                                                     22.2
 PW_GRID| spherical cutoff:                                                   NO
 PW_GRID|   Bounds   1            -12      11                Points:          24
 PW_GRID|   Bounds   2            -10       9                Points:          20
 PW_GRID|   Bounds   3            -96      95                Points:         192
 PW_GRID| Volume element (a.u.^3)  0.8273E-01     Volume (a.u.^3)      7624.7530
 PW_GRID| Grid span                                                    FULLSPACE
 PW_GRID|   Distribution                         Average         Max         Min
 PW_GRID|   G-Vectors                            11520.0       11568       11496
 PW_GRID|   G-Rays                                 480.0         482         479
 PW_GRID|   Real Space Points                    11520.0       11520       11520

 PW_GRID| Information for grid number                                          4
 PW_GRID| Number of the reference grid                                         1
 PW_GRID| Grid distributed over                                     8 processors
 PW_GRID| Real space group dimensions                                     8    1
 PW_GRID| the grid is blocked:                                                NO
 PW_GRID| Cutoff [a.u.]                                                      7.4
 PW_GRID| spherical cutoff:                                                   NO
 PW_GRID|   Bounds   1             -7       7                Points:          15
 PW_GRID|   Bounds   2             -6       5                Points:          12
 PW_GRID|   Bounds   3            -60      59                Points:         120
 PW_GRID| Volume element (a.u.^3)  0.3530         Volume (a.u.^3)      7624.7530
 PW_GRID| Grid span                                                    FULLSPACE
 PW_GRID|   Distribution                         Average         Max         Min
 PW_GRID|   G-Vectors                             2700.0        2745        2670
 PW_GRID|   G-Rays                                 180.0         183         178
 PW_GRID|   Real Space Points                     2700.0        2880        1440

 PW_GRID| Information for grid number                                          5
 PW_GRID| Number of the reference grid                                         1
 PW_GRID| Grid distributed over                                     8 processors
 PW_GRID| Real space group dimensions                                     8    1
 PW_GRID| the grid is blocked:                                                NO
 PW_GRID| Cutoff [a.u.]                                                      2.5
 PW_GRID| spherical cutoff:                                                   NO
 PW_GRID|   Bounds   1             -4       3                Points:           8
 PW_GRID|   Bounds   2             -4       3                Points:           8
 PW_GRID|   Bounds   3            -32      31                Points:          64
 PW_GRID| Volume element (a.u.^3)   1.862         Volume (a.u.^3)      7624.7530
 PW_GRID| Grid span                                                    FULLSPACE
 PW_GRID|   Distribution                         Average         Max         Min
 PW_GRID|   G-Vectors                              512.0         536         488
 PW_GRID|   G-Rays                                  64.0          67          61
 PW_GRID|   Real Space Points                      512.0         512         512

 POISSON| Solver                                                        PERIODIC
 POISSON| Periodicity                                                        XYZ

 RS_GRID| Information for grid number                                          1
 RS_GRID|   Bounds   1            -36      35                Points:          72
 RS_GRID|   Bounds   2            -30      29                Points:          60
 RS_GRID|   Bounds   3           -288     287                Points:         576
 RS_GRID| Real space distribution over                                  8 groups
 RS_GRID| Real space distribution along direction                              3
 RS_GRID| Border size                                                         42
 RS_GRID|   Distribution                         Average         Max         Min
 RS_GRID|   Planes                                 156.0         156         156

 RS_GRID| Information for grid number                                          2
 RS_GRID|   Bounds   1            -20      19                Points:          40
 RS_GRID|   Bounds   2            -18      17                Points:          36
 RS_GRID|   Bounds   3           -180     179                Points:         360
 RS_GRID| Real space distribution over                                  8 groups
 RS_GRID| Real space distribution along direction                              3
 RS_GRID| Border size                                                         40
 RS_GRID|   Distribution                         Average         Max         Min
 RS_GRID|   Planes                                 125.0         125         125

 RS_GRID| Information for grid number                                          3
 RS_GRID|   Bounds   1            -12      11                Points:          24
 RS_GRID|   Bounds   2            -10       9                Points:          20
 RS_GRID|   Bounds   3            -96      95                Points:         192
 RS_GRID| Real space fully replicated
 RS_GRID| Group size                                                           1

 RS_GRID| Information for grid number                                          4
 RS_GRID|   Bounds   1             -7       7                Points:          15
 RS_GRID|   Bounds   2             -6       5                Points:          12
 RS_GRID|   Bounds   3            -60      59                Points:         120
 RS_GRID| Real space fully replicated
 RS_GRID| Group size                                                           1

 RS_GRID| Information for grid number                                          5
 RS_GRID|   Bounds   1             -4       3                Points:           8
 RS_GRID|   Bounds   2             -4       3                Points:           8
 RS_GRID|   Bounds   3            -32      31                Points:          64
 RS_GRID| Real space fully replicated
 RS_GRID| Group size                                                           1

 Number of electrons:                                                         48
 Number of occupied orbitals:                                                 24
 Number of molecular orbitals:                                                34

 Number of orbital functions:                                                208
 Number of independent orbital functions:                                    208

 Extrapolation method: initial_guess

 Atomic guess: The first density matrix is obtained in terms of atomic orbitals
               and electronic configurations assigned to each atomic kind

 Guess for atomic kind: Al

 Electronic structure
    Total number of core electrons                                         10.00
    Total number of valence electrons                                       3.00
    Total number of electrons                                              13.00
    Multiplicity                                                   not specified
    S   [  2.00  2.00] 2.00
    P   [  6.00] 1.00


 *******************************************************************************
                  Iteration          Convergence                     Energy [au]
 *******************************************************************************
                          1        0.325870E-01                  -1.882962488314
                          2        0.576923E-02                  -1.884778220212
                          3        0.420304E-05                  -1.884833475258
                          4        0.174704E-06                  -1.884833475272

 Energy components [Hartree]           Total Energy ::           -1.884833475272
                                        Band Energy ::           -0.563013548476
                                     Kinetic Energy ::            0.716414054292
                                   Potential Energy ::           -2.601247529564
                                      Virial (-V/T) ::            3.630927553669
                                        Core Energy ::           -2.778772997682
                                          XC Energy ::           -0.612451131590
                                     Coulomb Energy ::            1.506390654001
                       Total Pseudopotential Energy ::           -3.548021985272
                       Local Pseudopotential Energy ::           -4.004472742092
                    Nonlocal Pseudopotential Energy ::            0.456450756820
                                        Confinement ::            0.528349332979

 Orbital energies  State     L     Occupation   Energy[a.u.]          Energy[eV]

                       1     0          2.000      -0.252268           -6.864569

                       1     1          1.000      -0.058477           -1.591240


 Total Electron Density at R=0:                                         0.000023
 Re-scaling the density matrix to get the right number of electrons
                  # Electrons              Trace(P)               Scaling factor
                           48                48.224                        0.995


 SCF WAVEFUNCTION OPTIMIZATION

  Step     Update method      Time    Convergence         Total energy    Change
  ------------------------------------------------------------------------------

 *** WARNING in fm/cp_fm_elpa.F:522 :: Setting real_kernel for ELPA failed ***


 MO| EIGENVALUES AND OCCUPATION NUMBERS AFTER SCF STEP 0
 MO|
 MO|  Index      Eigenvalue [a.u.]        Eigenvalue [eV]             Occupation
 MO|      1            -0.56924675           -15.48999174             2.00000000
 MO|      2            -0.52605000           -14.31454857             2.00000000
 MO|      3            -0.46395060           -12.62473797             2.00000000
 MO|      4            -0.38296440           -10.42099132             2.00000000
 MO|      5            -0.36924878           -10.04777029             2.00000000
 MO|      6            -0.36637023            -9.96944092             2.00000000
 MO|      7            -0.33313655            -9.06510657             2.00000000
 MO|      8            -0.32230949            -8.77048715             2.00000000
 MO|      9            -0.30714088            -8.35772830             2.00000000
 MO|     10            -0.28993042            -7.88940788             2.00000000
 MO|     11            -0.27949590            -7.60547018             2.00000000
 MO|     12            -0.27135287            -7.38388711             2.00000000
 MO|     13            -0.26987877            -7.34377485             2.00000000
 MO|     14            -0.26612482            -7.24162474             2.00000000
 MO|     15            -0.25927481            -7.05522632             2.00000000
 MO|     16            -0.23939498            -6.51426875             2.00000000
 MO|     17            -0.23352722            -6.35459883             2.00000000
 MO|     18            -0.23208405            -6.31532827             2.00000000
 MO|     19            -0.21692294            -5.90277330             2.00000000
 MO|     20            -0.19016900            -5.17476158             2.00000000
 MO|     21            -0.18516296            -5.03854027             2.00000000
 MO|     22            -0.17433531            -4.74390511             2.00000000
 MO|     23            -0.15535742            -4.22749027             2.00000000
 MO|     24            -0.15429828            -4.19866971             2.00000000
 MO|     25            -0.14997573            -4.08104714             0.00000000
 MO|     26            -0.13848759            -3.76843886             0.00000000
 MO|     27            -0.10168023            -2.76685983             0.00000000
 MO|     28            -0.08747318            -2.38026626             0.00000000
 MO|     29            -0.08504653            -2.31423378             0.00000000
 MO|     30            -0.07298373            -1.98598827             0.00000000
 MO|     31            -0.06318963            -1.71947717             0.00000000
 MO|     32            -0.05726019            -1.55812907             0.00000000
 MO|     33            -0.04486882            -1.22094255             0.00000000
 MO|     34            -0.00681743            -0.18551179             0.00000000
 MO| Sum:                                                            48.00000000
 MO| E(Fermi):         -0.15429828 a.u.       -4.19866971 eV
 MO| Band gap:          0.00432255 a.u.        0.11762257 eV

     1 NoMix/Diag. 0.40E+00    0.4     0.93663482       -36.0908312144 -3.61E+01

 *** WARNING in fm/cp_fm_elpa.F:522 :: Setting real_kernel for ELPA failed ***


 MO| EIGENVALUES AND OCCUPATION NUMBERS AFTER SCF STEP 1
 MO|
 MO|  Index      Eigenvalue [a.u.]        Eigenvalue [eV]             Occupation
 MO|      1            -0.53091092           -14.44682074             2.00000000
 MO|      2            -0.49690368           -13.52143666             2.00000000
 MO|      3            -0.44031824           -11.98166860             2.00000000
 MO|      4            -0.36088764            -9.82025207             2.00000000
 MO|      5            -0.32724049            -8.90466666             2.00000000
 MO|      6            -0.32493833            -8.84202163             2.00000000
 MO|      7            -0.30021124            -8.16916330             2.00000000
 MO|      8            -0.28830982            -7.84530910             2.00000000
 MO|      9            -0.27544855            -7.49533632             2.00000000
 MO|     10            -0.25910098            -7.05049632             2.00000000
 MO|     11            -0.25770953            -7.01263282             2.00000000
 MO|     12            -0.24179428            -6.57955706             2.00000000
 MO|     13            -0.23778374            -6.47042453             2.00000000
 MO|     14            -0.23516311            -6.39911370             2.00000000
 MO|     15            -0.23500210            -6.39473229             2.00000000
 MO|     16            -0.22084156            -6.00940439             2.00000000
 MO|     17            -0.21635389            -5.88728879             2.00000000
 MO|     18            -0.20594709            -5.60410542             2.00000000
 MO|     19            -0.18754889            -5.10346482             2.00000000
 MO|     20            -0.17317317            -4.71228161             2.00000000
 MO|     21            -0.16156563            -4.39642443             2.00000000
 MO|     22            -0.15299570            -4.16322478             2.00000000
 MO|     23            -0.13947533            -3.79531664             2.00000000
 MO|     24            -0.13903047            -3.78321146             2.00000000
 MO|     25            -0.13000890            -3.53772204             0.00000000
 MO|     26            -0.12243840            -3.33171838             0.00000000
 MO|     27            -0.08833952            -2.40384045             0.00000000
 MO|     28            -0.07635296            -2.07766959             0.00000000
 MO|     29            -0.06534184            -1.77804198             0.00000000
 MO|     30            -0.05810582            -1.58113988             0.00000000
 MO|     31            -0.05112416            -1.39115902             0.00000000
 MO|     32            -0.03837312            -1.04418576             0.00000000
 MO|     33            -0.03476265            -0.94593983             0.00000000
 MO|     34             0.00368625             0.10030790             0.00000000
 MO| Sum:                                                            48.00000000
 MO| E(Fermi):         -0.13903047 a.u.       -3.78321146 eV
 MO| Band gap:          0.00902157 a.u.        0.24548942 eV

     2 Broy./Diag. 0.40E+00    1.1     0.64457038       -33.1238039568  2.97E+00

 *** WARNING in fm/cp_fm_elpa.F:522 :: Setting real_kernel for ELPA failed ***


 MO| EIGENVALUES AND OCCUPATION NUMBERS AFTER SCF STEP 2
 MO|
 MO|  Index      Eigenvalue [a.u.]        Eigenvalue [eV]             Occupation
 MO|      1            -0.53127727           -14.45678972             2.00000000
 MO|      2            -0.49080145           -13.35538656             2.00000000
 MO|      3            -0.43418246           -11.81470545             2.00000000
 MO|      4            -0.35707039            -9.71637958             2.00000000
 MO|      5            -0.32604789            -8.87221416             2.00000000
 MO|      6            -0.32299413            -8.78911728             2.00000000
 MO|      7            -0.29102728            -7.91925500             2.00000000
 MO|      8            -0.28614283            -7.78634249             2.00000000
 MO|      9            -0.27308390            -7.43099091             2.00000000
 MO|     10            -0.26394999            -7.18244460             2.00000000
 MO|     11            -0.25602630            -6.96682992             2.00000000
 MO|     12            -0.24270278            -6.60427858             2.00000000
 MO|     13            -0.23600811            -6.42210740             2.00000000
 MO|     14            -0.23391591            -6.36517564             2.00000000
 MO|     15            -0.22650540            -6.16352544             2.00000000
 MO|     16            -0.20927232            -5.69458948             2.00000000
 MO|     17            -0.20711416            -5.63586288             2.00000000
 MO|     18            -0.20245299            -5.50902596             2.00000000
 MO|     19            -0.18803924            -5.11680804             2.00000000
 MO|     20            -0.16684413            -4.54005957             2.00000000
 MO|     21            -0.15981866            -4.34888680             2.00000000
 MO|     22            -0.14929500            -4.06252350             2.00000000
 MO|     23            -0.13744336            -3.74002408             2.00000000
 MO|     24            -0.13593043            -3.69885515             2.00000000
 MO|     25            -0.12938206            -3.52066497             0.00000000
 MO|     26            -0.11369244            -3.09372860             0.00000000
 MO|     27            -0.08575162            -2.33342023             0.00000000
 MO|     28            -0.07289189            -1.98348929             0.00000000
 MO|     29            -0.06267673            -1.70552061             0.00000000
 MO|     30            -0.05433327            -1.47848336             0.00000000
 MO|     31            -0.04750729            -1.29273919             0.00000000
 MO|     32            -0.03620382            -0.98515601             0.00000000
 MO|     33            -0.03324107            -0.90453539             0.00000000
 MO|     34             0.00608821             0.16566859             0.00000000
 MO| Sum:                                                            48.00000000
 MO| E(Fermi):         -0.13593043 a.u.       -3.69885515 eV
 MO| Band gap:          0.00654837 a.u.        0.17819018 eV

     3 Broy./Diag. 0.40E+00    1.1     0.48562577       -33.2932144419 -1.69E-01

 *** WARNING in fm/cp_fm_elpa.F:522 :: Setting real_kernel for ELPA failed ***


 MO| EIGENVALUES AND OCCUPATION NUMBERS AFTER SCF STEP 3
 MO|
 MO|  Index      Eigenvalue [a.u.]        Eigenvalue [eV]             Occupation
 MO|      1            -0.52365666           -14.24942227             2.00000000
 MO|      2            -0.48092346           -13.08659278             2.00000000
 MO|      3            -0.42403895           -11.53868673             2.00000000
 MO|      4            -0.34940890            -9.50789975             2.00000000
 MO|      5            -0.31759873            -8.64230090             2.00000000
 MO|      6            -0.31675785            -8.61941945             2.00000000
 MO|      7            -0.28313694            -7.70454783             2.00000000
 MO|      8            -0.27611366            -7.51343482             2.00000000
 MO|      9            -0.25962035            -7.06462891             2.00000000
 MO|     10            -0.24962309            -6.79258961             2.00000000
 MO|     11            -0.24668304            -6.71258676             2.00000000
 MO|     12            -0.23411301            -6.37053893             2.00000000
 MO|     13            -0.22677500            -6.17086146             2.00000000
 MO|     14            -0.22566824            -6.14074521             2.00000000
 MO|     15            -0.22171522            -6.03317790             2.00000000
 MO|     16            -0.20830474            -5.66826026             2.00000000
 MO|     17            -0.19981793            -5.43732226             2.00000000
 MO|     18            -0.19782026            -5.38296316             2.00000000
 MO|     19            -0.17352585            -4.72187840             2.00000000
 MO|     20            -0.15944390            -4.33868922             2.00000000
 MO|     21            -0.14814773            -4.03130475             2.00000000
 MO|     22            -0.13857265            -3.77075358             2.00000000
 MO|     23            -0.13164839            -3.58233477             2.00000000
 MO|     24            -0.12671402            -3.44806381             2.00000000
 MO|     25            -0.12355103            -3.36199447             0.00000000
 MO|     26            -0.10747473            -2.92453612             0.00000000
 MO|     27            -0.07791841            -2.12026781             0.00000000
 MO|     28            -0.06857466            -1.86601140             0.00000000
 MO|     29            -0.05753851            -1.56570244             0.00000000
 MO|     30            -0.04781377            -1.30107876             0.00000000
 MO|     31            -0.04062845            -1.10555627             0.00000000
 MO|     32            -0.03047785            -0.82934444             0.00000000
 MO|     33            -0.02760675            -0.75121786             0.00000000
 MO|     34             0.01182152             0.32168002             0.00000000
 MO| Sum:                                                            48.00000000
 MO| E(Fermi):         -0.12671402 a.u.       -3.44806381 eV
 MO| Band gap:          0.00316299 a.u.        0.08606933 eV

     4 Broy./Diag. 0.40E+00    1.1     0.37899112       -33.1467137713  1.47E-01

 *** WARNING in fm/cp_fm_elpa.F:522 :: Setting real_kernel for ELPA failed ***


 MO| EIGENVALUES AND OCCUPATION NUMBERS AFTER SCF STEP 4
 MO|
 MO|  Index      Eigenvalue [a.u.]        Eigenvalue [eV]             Occupation
 MO|      1            -0.51387849           -13.98334486             2.00000000
 MO|      2            -0.47455406           -12.91327277             2.00000000
 MO|      3            -0.41811237           -11.37741622             2.00000000
 MO|      4            -0.34368693            -9.35219697             2.00000000
 MO|      5            -0.30703803            -8.35492969             2.00000000
 MO|      6            -0.30665310            -8.34445515             2.00000000
 MO|      7            -0.27435257            -7.46551302             2.00000000
 MO|      8            -0.26820371            -7.29819402             2.00000000
 MO|      9            -0.25437096            -6.92178586             2.00000000
 MO|     10            -0.24432393            -6.64839227             2.00000000
 MO|     11            -0.24331928            -6.62105442             2.00000000
 MO|     12            -0.22443428            -6.10716722             2.00000000
 MO|     13            -0.21965781            -5.97719299             2.00000000
 MO|     14            -0.21844642            -5.94422951             2.00000000
 MO|     15            -0.21315577            -5.80026342             2.00000000
 MO|     16            -0.19864567            -5.40542346             2.00000000
 MO|     17            -0.19065674            -5.18803370             2.00000000
 MO|     18            -0.19048510            -5.18336326             2.00000000
 MO|     19            -0.17031028            -4.63437852             2.00000000
 MO|     20            -0.15275391            -4.15664520             2.00000000
 MO|     21            -0.14326301            -3.89838486             2.00000000
 MO|     22            -0.13361786            -3.63592693             2.00000000
 MO|     23            -0.12630395            -3.43690520             2.00000000
 MO|     24            -0.12201912            -3.32030922             2.00000000
 MO|     25            -0.11807153            -3.21288976             0.00000000
 MO|     26            -0.10071343            -2.74055174             0.00000000
 MO|     27            -0.07354886            -2.00136625             0.00000000
 MO|     28            -0.06267489            -1.70547037             0.00000000
 MO|     29            -0.05072256            -1.38023101             0.00000000
 MO|     30            -0.04278380            -1.16420628             0.00000000
 MO|     31            -0.03604280            -0.98077458             0.00000000
 MO|     32            -0.02497247            -0.67953553             0.00000000
 MO|     33            -0.02427694            -0.66060912             0.00000000
 MO|     34             0.01636167             0.44522373             0.00000000
 MO| Sum:                                                            48.00000000
 MO| E(Fermi):         -0.12201912 a.u.       -3.32030922 eV
 MO| Band gap:          0.00394759 a.u.        0.10741946 eV

     5 Broy./Diag. 0.40E+00    1.1     0.19463263       -33.0849437281  6.18E-02

 *** WARNING in fm/cp_fm_elpa.F:522 :: Setting real_kernel for ELPA failed ***


 MO| EIGENVALUES AND OCCUPATION NUMBERS AFTER SCF STEP 5
 MO|
 MO|  Index      Eigenvalue [a.u.]        Eigenvalue [eV]             Occupation
 MO|      1            -0.51078402           -13.89914013             2.00000000
 MO|      2            -0.47131888           -12.82523886             2.00000000
 MO|      3            -0.41424938           -11.27229876             2.00000000
 MO|      4            -0.34007902            -9.25402063             2.00000000
 MO|      5            -0.30439038            -8.28288340             2.00000000
 MO|      6            -0.30381125            -8.26712464             2.00000000
 MO|      7            -0.27129837            -7.38240400             2.00000000
 MO|      8            -0.26523254            -7.21734451             2.00000000
 MO|      9            -0.25077434            -6.82391686             2.00000000
 MO|     10            -0.24101986            -6.55848387             2.00000000
 MO|     11            -0.23981833            -6.52578865             2.00000000
 MO|     12            -0.22102568            -6.01441452             2.00000000
 MO|     13            -0.21609297            -5.88018885             2.00000000
 MO|     14            -0.21491660            -5.84817812             2.00000000
 MO|     15            -0.20949865            -5.70074826             2.00000000
 MO|     16            -0.19485759            -5.30234473             2.00000000
 MO|     17            -0.18670414            -5.08047800             2.00000000
 MO|     18            -0.18643103            -5.07304624             2.00000000
 MO|     19            -0.16688253            -4.54110461             2.00000000
 MO|     20            -0.14839620            -4.03806610             2.00000000
 MO|     21            -0.13949989            -3.79598493             2.00000000
 MO|     22            -0.12967035            -3.52850976             2.00000000
 MO|     23            -0.12263246            -3.33699898             2.00000000
 MO|     24            -0.11764694            -3.20133593             2.00000000
 MO|     25            -0.11470730            -3.12134424             0.00000000
 MO|     26            -0.09673509            -2.63229572             0.00000000
 MO|     27            -0.06928632            -1.88537652             0.00000000
 MO|     28            -0.05872303            -1.59793478             0.00000000
 MO|     29            -0.04715397            -1.28312466             0.00000000
 MO|     30            -0.03918779            -1.06635408             0.00000000
 MO|     31            -0.03209555            -0.87336446             0.00000000
 MO|     32            -0.02189708            -0.59584976             0.00000000
 MO|     33            -0.02092238            -0.56932696             0.00000000
 MO|     34             0.02007713             0.54632662             0.00000000
 MO| Sum:                                                            48.00000000
 MO| E(Fermi):         -0.11764694 a.u.       -3.20133593 eV
 MO| Band gap:          0.00293964 a.u.        0.07999169 eV

     6 Broy./Diag. 0.40E+00    1.1     0.01226055       -33.0872470165 -2.30E-03

 *** WARNING in fm/cp_fm_elpa.F:522 :: Setting real_kernel for ELPA failed ***


 MO| EIGENVALUES AND OCCUPATION NUMBERS AFTER SCF STEP 6
 MO|
 MO|  Index      Eigenvalue [a.u.]        Eigenvalue [eV]             Occupation
 MO|      1            -0.50625084           -13.77578584             2.00000000
 MO|      2            -0.46669260           -12.69935156             2.00000000
 MO|      3            -0.40977888           -11.15065027             2.00000000
 MO|      4            -0.33562959            -9.13294564             2.00000000
 MO|      5            -0.30011912            -8.16665647             2.00000000
 MO|      6            -0.29916847            -8.14078819             2.00000000
 MO|      7            -0.26671530            -7.25769247             2.00000000
 MO|      8            -0.26076549            -7.09578990             2.00000000
 MO|      9            -0.24599253            -6.69379715             2.00000000
 MO|     10            -0.23682179            -6.44424866             2.00000000
 MO|     11            -0.23507413            -6.39669239             2.00000000
 MO|     12            -0.21637634            -5.88789959             2.00000000
 MO|     13            -0.21132103            -5.75033760             2.00000000
 MO|     14            -0.21026422            -5.72158033             2.00000000
 MO|     15            -0.20520262            -5.58384737             2.00000000
 MO|     16            -0.19036244            -5.18002547             2.00000000
 MO|     17            -0.18226474            -4.95967586             2.00000000
 MO|     18            -0.18189454            -4.94960217             2.00000000
 MO|     19            -0.16199210            -4.40802908             2.00000000
 MO|     20            -0.14377026            -3.91218760             2.00000000
 MO|     21            -0.13494419            -3.67201825             2.00000000
 MO|     22            -0.12502332            -3.40205747             2.00000000
 MO|     23            -0.11845355            -3.22328505             2.00000000
 MO|     24            -0.11292090            -3.07273408             2.00000000
 MO|     25            -0.11041622            -3.00457820             0.00000000
 MO|     26            -0.09237176            -2.51356346             0.00000000
 MO|     27            -0.06462432            -1.75851716             0.00000000
 MO|     28            -0.05432249            -1.47819004             0.00000000
 MO|     29            -0.04276233            -1.16362229             0.00000000
 MO|     30            -0.03487835            -0.94908812             0.00000000
 MO|     31            -0.02774958            -0.75510443             0.00000000
 MO|     32            -0.01771851            -0.48214521             0.00000000
 MO|     33            -0.01697363            -0.46187584             0.00000000
 MO|     34             0.02432142             0.66181951             0.00000000
 MO| Sum:                                                            48.00000000
 MO| E(Fermi):         -0.11292090 a.u.       -3.07273408 eV
 MO| Band gap:          0.00250468 a.u.        0.06815588 eV

     7 Broy./Diag. 0.40E+00    1.2     0.02940004       -33.0522441045  3.50E-02

 *** WARNING in fm/cp_fm_elpa.F:522 :: Setting real_kernel for ELPA failed ***


 MO| EIGENVALUES AND OCCUPATION NUMBERS AFTER SCF STEP 7
 MO|
 MO|  Index      Eigenvalue [a.u.]        Eigenvalue [eV]             Occupation
 MO|      1            -0.50303097           -13.68816888             2.00000000
 MO|      2            -0.46341123           -12.61006087             2.00000000
 MO|      3            -0.40651674           -11.06188300             2.00000000
 MO|      4            -0.33234258            -9.04350156             2.00000000
 MO|      5            -0.29693112            -8.07990666             2.00000000
 MO|      6            -0.29592621            -8.05256172             2.00000000
 MO|      7            -0.26344969            -7.16883055             2.00000000
 MO|      8            -0.25748764            -7.00659504             2.00000000
 MO|      9            -0.24283775            -6.60795118             2.00000000
 MO|     10            -0.23363962            -6.35765738             2.00000000
 MO|     11            -0.23194899            -6.31165288             2.00000000
 MO|     12            -0.21316104            -5.80040685             2.00000000
 MO|     13            -0.20796872            -5.65911660             2.00000000
 MO|     14            -0.20702474            -5.63342960             2.00000000
 MO|     15            -0.20193823            -5.49501874             2.00000000
 MO|     16            -0.18699984            -5.08852438             2.00000000
 MO|     17            -0.17886376            -4.86713042             2.00000000
 MO|     18            -0.17864842            -4.86127063             2.00000000
 MO|     19            -0.15873243            -4.31932917             2.00000000
 MO|     20            -0.14032254            -3.81837054             2.00000000
 MO|     21            -0.13171709            -3.58420438             2.00000000
 MO|     22            -0.12170273            -3.31169962             2.00000000
 MO|     23            -0.11534185            -3.13861126             2.00000000
 MO|     24            -0.10960283            -2.98244475             2.00000000
 MO|     25            -0.10718903            -2.91676172             0.00000000
 MO|     26            -0.08904975            -2.42316696             0.00000000
 MO|     27            -0.06123925            -1.66640483             0.00000000
 MO|     28            -0.05096965            -1.38695479             0.00000000
 MO|     29            -0.03948933            -1.07455937             0.00000000
 MO|     30            -0.03166396            -0.86162021             0.00000000
 MO|     31            -0.02447283            -0.66593960             0.00000000
 MO|     32            -0.01451648            -0.39501364             0.00000000
 MO|     33            -0.01400050            -0.38097285             0.00000000
 MO|     34             0.02751301             0.74866713             0.00000000
 MO| Sum:                                                            48.00000000
 MO| E(Fermi):         -0.10960283 a.u.       -2.98244475 eV
 MO| Band gap:          0.00241381 a.u.        0.06568303 eV

     8 Broy./Diag. 0.40E+00    1.2     0.02729875       -33.0638457642 -1.16E-02

 *** WARNING in fm/cp_fm_elpa.F:522 :: Setting real_kernel for ELPA failed ***


 MO| EIGENVALUES AND OCCUPATION NUMBERS AFTER SCF STEP 8
 MO|
 MO|  Index      Eigenvalue [a.u.]        Eigenvalue [eV]             Occupation
 MO|      1            -0.50055151           -13.62069937             2.00000000
 MO|      2            -0.46097378           -12.54373447             2.00000000
 MO|      3            -0.40416149           -10.99779345             2.00000000
 MO|      4            -0.33000256            -8.97982637             2.00000000
 MO|      5            -0.29443356            -8.01194467             2.00000000
 MO|      6            -0.29343132            -7.98467241             2.00000000
 MO|      7            -0.26097483            -7.10148633             2.00000000
 MO|      8            -0.25503612            -6.93988563             2.00000000
 MO|      9            -0.24038662            -6.54125252             2.00000000
 MO|     10            -0.23135406            -6.29546421             2.00000000
 MO|     11            -0.22951044            -6.24529680             2.00000000
 MO|     12            -0.21069733            -5.73336604             2.00000000
 MO|     13            -0.20557480            -5.59397491             2.00000000
 MO|     14            -0.20458420            -5.56701925             2.00000000
 MO|     15            -0.19953679            -5.42967214             2.00000000
 MO|     16            -0.18458532            -5.02282199             2.00000000
 MO|     17            -0.17649935            -4.80279147             2.00000000
 MO|     18            -0.17629136            -4.79713179             2.00000000
 MO|     19            -0.15632292            -4.25376285             2.00000000
 MO|     20            -0.13802356            -3.75581210             2.00000000
 MO|     21            -0.12941100            -3.52145241             2.00000000
 MO|     22            -0.11937735            -3.24842282             2.00000000
 MO|     23            -0.11312670            -3.07833407             2.00000000
 MO|     24            -0.10729947            -2.91976712             2.00000000
 MO|     25            -0.10481877            -2.85226371             0.00000000
 MO|     26            -0.08672293            -2.35985100             0.00000000
 MO|     27            -0.05896647            -1.60455925             0.00000000
 MO|     28            -0.04867519            -1.32451929             0.00000000
 MO|     29            -0.03718744            -1.01192169             0.00000000
 MO|     30            -0.02939367            -0.79984251             0.00000000
 MO|     31            -0.02222099            -0.60466390             0.00000000
 MO|     32            -0.01217534            -0.33130775             0.00000000
 MO|     33            -0.01191436            -0.32420624             0.00000000
 MO|     34             0.02974131             0.80930230             0.00000000
 MO| Sum:                                                            48.00000000
 MO| E(Fermi):         -0.10729947 a.u.       -2.91976712 eV
 MO| Band gap:          0.00248070 a.u.        0.06750340 eV

     9 Broy./Diag. 0.40E+00    1.2     0.01459274       -33.0711949102 -7.35E-03

 *** WARNING in fm/cp_fm_elpa.F:522 :: Setting real_kernel for ELPA failed ***


 MO| EIGENVALUES AND OCCUPATION NUMBERS AFTER SCF STEP 9
 MO|
 MO|  Index      Eigenvalue [a.u.]        Eigenvalue [eV]             Occupation
 MO|      1            -0.49367803           -13.43366226             2.00000000
 MO|      2            -0.45412278           -12.35730941             2.00000000
 MO|      3            -0.39731862           -10.81158958             2.00000000
 MO|      4            -0.32328701            -8.79708697             2.00000000
 MO|      5            -0.28754916            -7.82461068             2.00000000
 MO|      6            -0.28657792            -7.79818172             2.00000000
 MO|      7            -0.25412869            -6.91519337             2.00000000
 MO|      8            -0.24816736            -6.75297742             2.00000000
 MO|      9            -0.23348788            -6.35352828             2.00000000
 MO|     10            -0.22479333            -6.11693761             2.00000000
 MO|     11            -0.22257220            -6.05649765             2.00000000
 MO|     12            -0.20383024            -5.54650288             2.00000000
 MO|     13            -0.19873543            -5.40786608             2.00000000
 MO|     14            -0.19774086            -5.38080242             2.00000000
 MO|     15            -0.19270957            -5.24389397             2.00000000
 MO|     16            -0.17776133            -4.83713190             2.00000000
 MO|     17            -0.16973415            -4.61870102             2.00000000
 MO|     18            -0.16944990            -4.61096622             2.00000000
 MO|     19            -0.14947929            -4.06753826             2.00000000
 MO|     20            -0.13120734            -3.57033324             2.00000000
 MO|     21            -0.12270361            -3.33893515             2.00000000
 MO|     22            -0.11259103            -3.06375774             2.00000000
 MO|     23            -0.10668841            -2.90313918             2.00000000
 MO|     24            -0.10063433            -2.73839926             2.00000000
 MO|     25            -0.09805709            -2.66826906             0.00000000
 MO|     26            -0.07992937            -2.17498888             0.00000000
 MO|     27            -0.05227843            -1.42256844             0.00000000
 MO|     28            -0.04198676            -1.14251791             0.00000000
 MO|     29            -0.03059987            -0.83266471             0.00000000
 MO|     30            -0.02284966            -0.62177080             0.00000000
 MO|     31            -0.01562268            -0.42511464             0.00000000
 MO|     32            -0.00579524            -0.15769646             0.00000000
 MO|     33            -0.00550520            -0.14980422             0.00000000
 MO|     34             0.03623543             0.98601606             0.00000000
 MO| Sum:                                                            48.00000000
 MO| E(Fermi):         -0.10063433 a.u.       -2.73839926 eV
 MO| Band gap:          0.00257724 a.u.        0.07013021 eV

    10 Broy./Diag. 0.40E+00    1.1     0.00891898       -33.0894371775 -1.82E-02

 *** WARNING in fm/cp_fm_elpa.F:522 :: Setting real_kernel for ELPA failed ***


 MO| EIGENVALUES AND OCCUPATION NUMBERS AFTER SCF STEP 10
 MO|
 MO|  Index      Eigenvalue [a.u.]        Eigenvalue [eV]             Occupation
 MO|      1            -0.48916738           -13.31092121             2.00000000
 MO|      2            -0.44960883           -12.23447849             2.00000000
 MO|      3            -0.39283025           -10.68945483             2.00000000
 MO|      4            -0.31885580            -8.67650766             2.00000000
 MO|      5            -0.28302425            -7.70148159             2.00000000
 MO|      6            -0.28208945            -7.67604441             2.00000000
 MO|      7            -0.24962617            -6.79267351             2.00000000
 MO|      8            -0.24362523            -6.62937973             2.00000000
 MO|      9            -0.22902450            -6.23207367             2.00000000
 MO|     10            -0.22046252            -5.99909021             2.00000000
 MO|     11            -0.21807908            -5.93423364             2.00000000
 MO|     12            -0.19931692            -5.42368920             2.00000000
 MO|     13            -0.19421364            -5.28482189             2.00000000
 MO|     14            -0.19323804            -5.25827449             2.00000000
 MO|     15            -0.18818569            -5.12079305             2.00000000
 MO|     16            -0.17322677            -4.71374000             2.00000000
 MO|     17            -0.16521396            -4.49570059             2.00000000
 MO|     18            -0.16494790            -4.48846075             2.00000000
 MO|     19            -0.14498484            -3.94523807             2.00000000
 MO|     20            -0.12667843            -3.44709545             2.00000000
 MO|     21            -0.11829436            -3.21895326             2.00000000
 MO|     22            -0.10811472            -2.94195118             2.00000000
 MO|     23            -0.10241125            -2.78675180             2.00000000
 MO|     24            -0.09623984            -2.61881917             2.00000000
 MO|     25            -0.09358963            -2.54670345             0.00000000
 MO|     26            -0.07542545            -2.05243076             0.00000000
 MO|     27            -0.04784948            -1.30205051             0.00000000
 MO|     28            -0.03754409            -1.02162659             0.00000000
 MO|     29            -0.02623092            -0.71377973             0.00000000
 MO|     30            -0.01852455            -0.50407874             0.00000000
 MO|     31            -0.01124216            -0.30591476             0.00000000
 MO|     32            -0.00171462            -0.04665706             0.00000000
 MO|     33            -0.00110147            -0.02997246             0.00000000
 MO|     34             0.04053978             1.10314357             0.00000000
 MO| Sum:                                                            48.00000000
 MO| E(Fermi):         -0.09623984 a.u.       -2.61881917 eV
 MO| Band gap:          0.00265020 a.u.        0.07211573 eV

    11 Broy./Diag. 0.40E+00    1.2     0.00638081       -33.1084539323 -1.90E-02

 *** WARNING in fm/cp_fm_elpa.F:522 :: Setting real_kernel for ELPA failed ***


 MO| EIGENVALUES AND OCCUPATION NUMBERS AFTER SCF STEP 11
 MO|
 MO|  Index      Eigenvalue [a.u.]        Eigenvalue [eV]             Occupation
 MO|      1            -0.48550057           -13.21114240             2.00000000
 MO|      2            -0.44596255           -12.13525800             2.00000000
 MO|      3            -0.38921227           -10.59100446             2.00000000
 MO|      4            -0.31524937            -8.57837156             2.00000000
 MO|      5            -0.27935092            -7.60152512             2.00000000
 MO|      6            -0.27844176            -7.57678574             2.00000000
 MO|      7            -0.24598867            -6.69369224             2.00000000
 MO|      8            -0.23998018            -6.53019279             2.00000000
 MO|      9            -0.22538657            -6.13308055             2.00000000
 MO|     10            -0.21692484            -5.90282522             2.00000000
 MO|     11            -0.21442852            -5.83489675             2.00000000
 MO|     12            -0.19563163            -5.32340731             2.00000000
 MO|     13            -0.19055537            -5.18527526             2.00000000
 MO|     14            -0.18956818            -5.15841255             2.00000000
 MO|     15            -0.18454383            -5.02169303             2.00000000
 MO|     16            -0.16954496            -4.61355295             2.00000000
 MO|     17            -0.16157933            -4.39679721             2.00000000
 MO|     18            -0.16130032            -4.38920501             2.00000000
 MO|     19            -0.14133486            -3.84591720             2.00000000
 MO|     20            -0.12304034            -3.34809805             2.00000000
 MO|     21            -0.11470911            -3.12139353             2.00000000
 MO|     22            -0.10448708            -2.84323812             2.00000000
 MO|     23            -0.09890157            -2.69124861             2.00000000
 MO|     24            -0.09264722            -2.52105894             2.00000000
 MO|     25            -0.08994991            -2.44766157             0.00000000
 MO|     26            -0.07179955            -1.95376515             0.00000000
 MO|     27            -0.04423951            -1.20381835             0.00000000
 MO|     28            -0.03392428            -0.92312659             0.00000000
 MO|     29            -0.02266542            -0.61675742             0.00000000
 MO|     30            -0.01498531            -0.40777094             0.00000000
 MO|     31            -0.00767681            -0.20889661             0.00000000
 MO|     32             0.00166722             0.04536747             0.00000000
 MO|     33             0.00248698             0.06767406             0.00000000
 MO|     34             0.04407254             1.19927483             0.00000000
 MO| Sum:                                                            48.00000000
 MO| E(Fermi):         -0.09264722 a.u.       -2.52105894 eV
 MO| Band gap:          0.00269730 a.u.        0.07339736 eV

    12 Broy./Diag. 0.40E+00    1.2     0.00166376       -33.1196117561 -1.12E-02

 *** WARNING in fm/cp_fm_elpa.F:522 :: Setting real_kernel for ELPA failed ***


 MO| EIGENVALUES AND OCCUPATION NUMBERS AFTER SCF STEP 12
 MO|
 MO|  Index      Eigenvalue [a.u.]        Eigenvalue [eV]             Occupation
 MO|      1            -0.48360795           -13.15964149             2.00000000
 MO|      2            -0.44406885           -12.08372793             2.00000000
 MO|      3            -0.38732584           -10.53967204             2.00000000
 MO|      4            -0.31335275            -8.52676193             2.00000000
 MO|      5            -0.27747123            -7.55037625             2.00000000
 MO|      6            -0.27654858            -7.52526966             2.00000000
 MO|      7            -0.24409806            -6.64224591             2.00000000
 MO|      8            -0.23809303            -6.47884081             2.00000000
 MO|      9            -0.22348236            -6.08126423             2.00000000
 MO|     10            -0.21504943            -5.85179265             2.00000000
 MO|     11            -0.21252422            -5.78307815             2.00000000
 MO|     12            -0.19372965            -5.27165187             2.00000000
 MO|     13            -0.18866001            -5.13370001             2.00000000
 MO|     14            -0.18766843            -5.10671778             2.00000000
 MO|     15            -0.18265549            -4.97030875             2.00000000
 MO|     16            -0.16765017            -4.56199307             2.00000000
 MO|     17            -0.15969712            -4.34557962             2.00000000
 MO|     18            -0.15940723            -4.33769138             2.00000000
 MO|     19            -0.13943093            -3.79410851             2.00000000
 MO|     20            -0.12115117            -3.29669110             2.00000000
 MO|     21            -0.11283247            -3.07032760             2.00000000
 MO|     22            -0.10259098            -2.79164249             2.00000000
 MO|     23            -0.09704539            -2.64073936             2.00000000
 MO|     24            -0.09073894            -2.46913212             2.00000000
 MO|     25            -0.08804635            -2.39586297             0.00000000
 MO|     26            -0.06991252            -1.90241634             0.00000000
 MO|     27            -0.04233637            -1.15203124             0.00000000
 MO|     28            -0.03202421            -0.87142297             0.00000000
 MO|     29            -0.02079739            -0.56592569             0.00000000
[...]
 MO|     24            -0.08552173            -2.32716457             2.00000000
 MO|     25            -0.08283399            -2.25402738             0.00000000
 MO|     26            -0.06468879            -1.76027139             0.00000000
 MO|     27            -0.03712075            -1.01010697             0.00000000
 MO|     28            -0.02681021            -0.72954282             0.00000000
 MO|     29            -0.01562077            -0.42506275             0.00000000
 MO|     30            -0.00788876            -0.21466397             0.00000000
 MO|     31            -0.00060466            -0.01645374             0.00000000
 MO|     32             0.00850797             0.23151353             0.00000000
 MO|     33             0.00958735             0.26088504             0.00000000
 MO|     34             0.05115174             1.39190955             0.00000000
 MO| Sum:                                                            48.00000000
 MO| E(Fermi):         -0.08552173 a.u.       -2.32716457 eV
 MO| Band gap:          0.00268774 a.u.        0.07313719 eV


   Calculate PDOS at iteration step                                  0

 *** WARNING in fm/cp_fm_elpa.F:522 :: Setting real_kernel for ELPA failed ***


              ---- PDOS: start iteration on the KS states --- 

 !-----------------------------------------------------------------------------!
                     Mulliken Population Analysis

 #  Atom  Element  Kind  Atomic population                           Net charge
       1     Al       1          2.813623                              0.186377
       2     Al       1          2.813620                              0.186380
       3     Al       1          3.081271                             -0.081271
       4     Al       1          3.081274                             -0.081274
       5     Al       1          3.095840                             -0.095840
       6     Al       1          3.095838                             -0.095838
       7     Al       1          3.024190                             -0.024190
       8     Al       1          3.024189                             -0.024189
       9     Al       1          3.229282                             -0.229282
      10     Al       1          3.229283                             -0.229283
      11     Al       1          2.916894                              0.083106
      12     Al       1          2.916891                              0.083109
      13     Al       1          2.974086                              0.025914
      14     Al       1          2.974096                              0.025904
      15     Al       1          2.864816                              0.135184
      16     Al       1          2.864807                              0.135193
 # Total charge                             48.000000                 -0.000000

 !-----------------------------------------------------------------------------!

 !-----------------------------------------------------------------------------!
                           Hirshfeld Charges

  #Atom  Element  Kind  Ref Charge     Population                    Net charge
      1       Al     1       3.000          3.021                        -0.021
      2       Al     1       3.000          3.021                        -0.021
      3       Al     1       3.000          3.023                        -0.023
      4       Al     1       3.000          3.023                        -0.023
      5       Al     1       3.000          2.978                         0.022
      6       Al     1       3.000          2.978                         0.022
      7       Al     1       3.000          2.975                         0.025
      8       Al     1       3.000          2.975                         0.025
      9       Al     1       3.000          2.987                         0.013
     10       Al     1       3.000          2.987                         0.013
     11       Al     1       3.000          2.965                         0.035
     12       Al     1       3.000          2.965                         0.035
     13       Al     1       3.000          3.016                        -0.016
     14       Al     1       3.000          3.016                        -0.016
     15       Al     1       3.000          3.035                        -0.035
     16       Al     1       3.000          3.035                        -0.035

  Total Charge                                                            0.000
 !-----------------------------------------------------------------------------!
  
  Eigenvalues of the occupied subspace spin            1
 ---------------------------------------------
      -0.47838546      -0.43884440      -0.38209825      -0.30813645
      -0.27224698      -0.27132165      -0.23886767      -0.23286538
      -0.21825691      -0.20984290      -0.20730197      -0.18851556
      -0.18343881      -0.18245319      -0.17743128      -0.16243028
      -0.15447476      -0.15418608      -0.13421363      -0.11592558
      -0.10763030      -0.09736861      -0.09188724      -0.08552173
 Fermi Energy [eV] :   -2.327165
  
  Lowest eigenvalues of the unoccupied subspace spin            1
 ---------------------------------------------
      -0.08283399      -0.06468879      -0.03712075

 ENERGY| Total FORCE_EVAL ( QS ) energy [a.u.]:              -33.125886447616224

 -------------------------------------------------------------------------------
 -                                                                             -
 -                                DBCSR STATISTICS                             -
 -                                                                             -
 -------------------------------------------------------------------------------
 COUNTER                                    TOTAL       BLAS       SMM       ACC
 flops    13 x    13 x     2              3125824       0.0%    100.0%      0.0%
 flops    13 x    13 x    32             50013184       0.0%    100.0%      0.0%
 flops inhomo. stacks                           0       0.0%      0.0%      0.0%
 flops total                        53.139008E+06       0.0%    100.0%      0.0%
 flops max/rank                      7.814560E+06       0.0%    100.0%      0.0%
 matmuls inhomo. stacks                         0       0.0%      0.0%      0.0%
 matmuls total                               9248       0.0%    100.0%      0.0%
 number of processed stacks                  1088       0.0%    100.0%      0.0%
 average stack size                                     0.0       8.5       0.0
 marketing flops                    70.606848E+06
 -------------------------------------------------------------------------------
 # multiplications                             34
 max memory usage/rank             508.452864E+06
 # max total images/rank                        2
 # max 3D layers                                1
 # MPI messages exchanged                    1360
 MPI messages size (bytes):
  total size                         7.694336E+06
  min size                           0.000000E+00
  max size                          26.624000E+03
  average size                       5.657600E+03
 MPI breakdown and total messages size (bytes):
             size <=      128                 680                        0
       128 < size <=     8192                 340                   452608
      8192 < size <=    32768                 340                  7241728
     32768 < size <=   131072                   0                        0
    131072 < size <=  4194304                   0                        0
   4194304 < size <= 16777216                   0                        0
  16777216 < size                               0                        0
 -------------------------------------------------------------------------------

 *** WARNING in dbcsr_mm.F:291 :: Using a non-square number of MPI ranks ***
 *** might lead to poor performance. Used ranks: 8 Suggested: 9 16       ***

 -------------------------------------------------------------------------------
 -                                                                             -
 -                      DBCSR MESSAGE PASSING PERFORMANCE                      -
 -                                                                             -
 -------------------------------------------------------------------------------
 ROUTINE             CALLS      AVE VOLUME [Bytes]
 MP_Bcast                3                     12.
 MP_Allreduce          262                      9.
 MP_Alltoall           976                  12402.
 MP_ISend              544                   3577.
 MP_IRecv              544                    237.
 -------------------------------------------------------------------------------

 -------------------------------------------------------------------------------
 -                                                                             -
 -                                DBM STATISTICS                               -
 -                                                                             -
 -------------------------------------------------------------------------------
    M  x    N  x    K                                          COUNT     PERCENT
 -------------------------------------------------------------------------------

 -------------------------------------------------------------------------------
 -                                                                             -
 -                                GRID STATISTICS                              -
 -                                                                             -
 -------------------------------------------------------------------------------
 LP    KERNEL             BACKEND                              COUNT     PERCENT
 4     collocate general  CPU                                 691740      50.70%
 4     integrate general  CPU                                 671976      49.25%
 2     collocate general  CPU                                    384       0.03%
 0     collocate general  CPU                                    256       0.02%
 0     integrate general  CPU                                    128       0.01%
 -------------------------------------------------------------------------------

 MEMORY| Estimated peak process memory [MiB]                                 487

 -------------------------------------------------------------------------------
 ----                             MULTIGRID INFO                            ----
 -------------------------------------------------------------------------------
 count for grid        1:           1112          cutoff [a.u.]          200.00
 count for grid        2:          12876          cutoff [a.u.]           66.67
 count for grid        3:          18968          cutoff [a.u.]           22.22
 count for grid        4:           5712          cutoff [a.u.]            7.41
 count for grid        5:            968          cutoff [a.u.]            2.47
 total gridlevel count  :          39636

 -------------------------------------------------------------------------------
 -                                                                             -
 -                         MESSAGE PASSING PERFORMANCE                         -
 -                                                                             -
 -------------------------------------------------------------------------------

 ROUTINE             CALLS      AVE VOLUME [Bytes]
 MP_Group                5
 MP_Bcast              105                1400369.
 MP_Allreduce          894                    808.
 MP_Sync                40
 MP_Alltoall           569                7138571.
 MP_SendRecv           861                  39765.
 MP_ISendRecv          714                  39765.
 MP_Wait              2550
 MP_ISend             1530                 345442.
 MP_IRecv             1530                 345442.
 MP_Write_All            6                 568800.
 -------------------------------------------------------------------------------


 -------------------------------------------------------------------------------
 -                                                                             -
 -                           R E F E R E N C E S                               -
 -                                                                             -
 -------------------------------------------------------------------------------
 
 CP2K version 2024.1, the CP2K developers group (2024).
 CP2K is freely available from https://www.cp2k.org/ .

 Kuehne,Thomas D.; Iannuzzi,Marcella; Del Ben,Mauro;
 Rybkin,Vladimir V.; Seewald,Patrick; Stein,Frederick; Laino,Teodoro;
 Khaliullin,Rustam Z.; Schuett,Ole; Schiffmann,Florian; Golze,Dorothea;
 Wilhelm,Jan; Chulkov,Sergey; Bani-Hashemian,Mohammad Hossein;
 Weber,Valery; Borstnik,Urban; Taillefumier,Mathieu;
 Jakobovits,Alice Shoshana; Lazzaro,Alfio; Pabst,Hans; Mueller,Tiziano;
 Schade,Robert; Guidon,Manuel; Andermatt,Samuel; Holmberg,Nico;
 Schenter,Gregory K.; Hehn,Anna; Bussy,Augustin; Belleflamme,Fabian;
 Tabacchi,Gloria; Gloess,Andreas; Lass,Michael; Bethune,Iain;
 Mundy,Christopher J.; Plessl,Christian; Watkins,Matt;
 VandeVondele,Joost; Krack,Matthias; Hutter,Juerg. 
 The Journal of Chemical Physics, 152 (19), (2020). 
 CP2K: An electronic structure and molecular dynamics software package -
 Quickstep: Efficient and accurate electronic structure calculations.
 https://doi.org/10.1063/5.0007045

 Schuett, Ole; Messmer, Peter; Hutter, Juerg; VandeVondele, Joost. 
 Electronic Structure Calculations on Graphics Processing Units, John
 Wiley & Sons, Ltd, 173-190 (2016). 
 GPU-Accelerated Sparse Matrix-Matrix Multiplication for
 Linear Scaling Density Functional Theory.
 https://doi.org/10.1002/9781118670712.ch8

 Heinecke, A; Henry, G; Hutchinson, M; Pabst, H. 
 Proceedings of Intl. Supercomputing Conference, 981-991 (2016). 
 LIBXSMM: Accelerating Small Matrix Multiplications
 by Runtime Code Generation.
 https://doi.org/10.1109/SC.2016.83

 Borstnik, U; VandeVondele, J; Weber, V; Hutter, J. 
 PARALLEL COMPUTING, 40 (5-6), 47-58 (2014). 
 Sparse matrix multiplication: The distributed block-compressed sparse
 row library.
 https://doi.org/10.1016/j.parco.2014.03.012

 Hutter, J; Iannuzzi, M; Schiffmann, F; VandeVondele, J. 
 WIREs Comput Mol Sci., 4 (1), 15-25 (2014). 
 CP2K: atomistic simulations of condensed matter systems.
 https://doi.org/10.1002/wcms.1159

 Marek, A; Blum, V; Johanni, R; Havu, V; Lang, B; Auckenthaler, T;
 Heinecke, A; Bungartz, H; Lederer, H. 
 Journal of Physics: Condensed Matter, 26 (21), (2014). 
 The ELPA library: scalable parallel eigenvalue solutions for
 electronic structure
 theory and computational science.
 https://doi.org/10.1088/0953-8984/26/21/213201

 VandeVondele, J; Hutter, J. 
 JOURNAL OF CHEMICAL PHYSICS, 127 (11), 114105 (2007). 
 Gaussian basis sets for accurate calculations on molecular systems in
 gas and condensed phases.
 https://doi.org/10.1063/1.2770708

 Krack, M. 
 THEORETICAL CHEMISTRY ACCOUNTS, 114 (1-3), 145-152 (2005). 
 Pseudopotentials for H to Kr optimized for gradient-corrected
 exchange-correlation functionals.
 https://doi.org/10.1007/s00214-005-0655-y

 VandeVondele, J; Krack, M; Mohamed, F; Parrinello, M; Chassaing, T;
 Hutter, J. COMPUTER PHYSICS COMMUNICATIONS, 167 (2), 103-128 (2005). 
 QUICKSTEP: Fast and accurate density functional calculations using a
 mixed Gaussian and plane waves approach.
 https://doi.org/10.1016/j.cpc.2004.12.014

 Frigo, M; Johnson, SG. 
 PROCEEDINGS OF THE IEEE, 93 (2), 216-231 (2005). 
 The design and implementation of FFTW3.
 https://doi.org/10.1109/JPROC.2004.840301

 Hartwigsen, C; Goedecker, S; Hutter, J. 
 PHYSICAL REVIEW B, 58 (7), 3641-3662 (1998). 
 Relativistic separable dual-space Gaussian pseudopotentials from H to Rn.
 https://doi.org/10.1103/PhysRevB.58.3641

 Lippert, G; Hutter, J; Parrinello, M. 
 MOLECULAR PHYSICS, 92 (3), 477-487 (1997). 
 A hybrid Gaussian and plane wave density functional scheme.
 https://doi.org/10.1080/002689797170220

 Goedecker, S; Teter, M; Hutter, J. 
 PHYSICAL REVIEW B, 54 (3), 1703-1710 (1996). 
 Separable dual-space Gaussian pseudopotentials.
 https://doi.org/10.1103/PhysRevB.54.1703


 -------------------------------------------------------------------------------
 -                                                                             -
 -                                T I M I N G                                  -
 -                                                                             -
 -------------------------------------------------------------------------------
 SUBROUTINE                       CALLS  ASD         SELF TIME        TOTAL TIME
                                MAXIMUM       AVERAGE  MAXIMUM  AVERAGE  MAXIMUM
 CP2K                                 1  1.0    0.011    0.013   40.800   40.800
 qs_energies                          1  2.0    0.000    0.000   40.670   40.670
 scf_env_do_scf                       1  3.0    0.000    0.000   39.179   39.180
 scf_env_do_scf_inner_loop           34  4.0    0.001    0.001   39.179   39.179
 qs_ks_update_qs_env                 34  5.0    0.000    0.000   19.099   19.099
 rebuild_ks_matrix                   34  6.0    0.000    0.000   19.097   19.097
 qs_ks_build_kohn_sham_matrix        34  7.0    0.003    0.004   19.097   19.097
 sum_up_and_integrate                34  8.0    0.000    0.000   17.127   17.128
 integrate_v_rspace                  34  9.0    0.001    0.001   17.100   17.102
 qs_rho_update_rho_low               35  5.0    0.000    0.000   16.191   16.191
 calculate_rho_elec                  35  6.0    0.063    0.064   16.191   16.191
 grid_integrate_task_list            34 10.0   11.393   15.499   11.393   15.499
 grid_collocate_task_list            35  7.0   10.306   13.499   10.306   13.499
 density_rs2pw                       35  7.0    0.002    0.002    5.748    6.869
 pw_transfer                        552  8.8    0.025    0.026    5.937    5.988
 fft_wrap_pw1pw2                    484  9.8    0.003    0.003    5.821    5.871
 rs_gather_matrices                  34 10.0    0.003    0.004    4.110    5.609
 mp_alltoall_d11v                   489  9.3    4.111    5.608    4.111    5.608
 fft_wrap_pw1pw2_200                184 10.1    0.607    0.614    5.231    5.340
 transfer_rs2pw                     207  7.7    0.002    0.002    3.435    4.570
 mp_waitany                        1530 11.2    3.412    4.550    3.412    4.550
 transfer_rs2pw_200                  43  8.7    0.066    0.071    3.356    4.490
 fft3d_ps                           484 11.8    2.717    2.816    4.083    4.109
 gspace_mixing                       33  5.0    0.060    0.060    3.675    3.675
 broyden_mixing                      33  6.0    2.628    2.644    2.653    2.663
 potential_pw2rs                     34 10.0    0.005    0.005    1.597    1.598
 scf_post_calculation_gpw             1  3.0    0.000    0.000    1.007    1.007
 mp_alltoall_z22v                   484 13.8    0.818    0.902    0.818    0.902
 x_to_yz                            244 13.4    0.381    0.401    0.838    0.868
 -------------------------------------------------------------------------------

 The number of warnings for this run is : 36
 
 -------------------------------------------------------------------------------
  **** **** ******  **  PROGRAM ENDED AT                 2024-08-12 20:29:36.134
 ***** ** ***  *** **   PROGRAM RAN ON                              0369ef120528
 **    ****   ******    PROGRAM RAN BY                                 <unknown>
 ***** **    ** ** **   PROGRAM PROCESS ID                                383404
  **** **  *******  **  PROGRAM STOPPED IN                      /workspace/Al111
