&FCI NORB=   5,NELEC=   2,MS2= 1,
  ORBSYM=1,1,1,1,1,
  ISYM=0,
 /
 5.5528648590199285E-02   1   1   1   1
 2.0235909887742366E-04   1   1   1   2
 8.9215516196320177E-05   1   1   1   3
-3.1434415883268135E-05   1   1   1   4
-3.2324681411167316E-08   1   1   1   5
 5.1557635640033281E-02   1   1   2   2
 3.9198530664556243E-05   1   1   2   3
 3.5947381944919911E-04   1   1   2   4
 1.0169829778440546E-05   1   1   2   5
 5.1489508099097074E-02   1   1   3   3
-5.4505084323601806E-05   1   1   3   4
 3.0965815806867564E-04   1   1   3   5
 4.9064909730977123E-02   1   1   4   4
-1.6060351873116343E-04   1   1   4   5
 4.9683092177755461E-02   1   1   5   5
 1.8241105253759746E-03   1   2   1   2
 4.3112119245505875E-06   1   2   1   3
-1.4945233227146545E-04   1   2   1   4
 2.9373713058690922E-05   1   2   1   5
-3.9735720417639490E-04   1   2   2   2
-3.2263309075301812E-04   1   2   2   3
 3.8641463692203922E-05   1   2   2   4
 3.2373023701464887E-07   1   2   2   5
 1.6239786089524875E-04   1   2   3   3
-1.3104489182341487E-05   1   2   3   4
 9.8914746996207724E-05   1   2   3   5
 6.7691028071473626E-05   1   2   4   4
 1.3116307360971308E-04   1   2   4   5
-2.7092083437594357E-04   1   2   5   5
 1.8089740709732135E-03   1   3   1   3
-4.1929554958372752E-05   1   3   1   4
-1.5087222014851335E-04   1   3   1   5
-3.7166411792292204E-04   1   3   2   2
 5.7263795731000477E-05   1   3   2   3
-4.7795183244773934E-05   1   3   2   4
-9.7423304732228890E-05   1   3   2   5
 2.7769391819838524E-04   1   3   3   3
-2.1322367498853408E-05   1   3   3   4
-7.6058935197031221E-05   1   3   3   5
 9.3473753332038756E-06   1   3   4   4
 2.7066025873521103E-04   1   3   4   5
-5.2330184052504637E-06   1   3   5   5
 1.0871751161913214E-03   1   4   1   4
-1.7957511848001211E-04   1   4   1   5
 4.0545991386578542E-05   1   4   2   2
 4.8407022013929537E-06   1   4   2   3
 9.5064252456229881E-05   1   4   2   4
 1.1437435958119453E-04   1   4   2   5
-8.8013884248135324E-05   1   4   3   3
 1.3482634412675040E-05   1   4   3   4
-6.6179283156519734E-05   1   4   3   5
 4.9252725847248211E-06   1   4   4   4
-1.1210041644748455E-05   1   4   4   5
-1.8137090946523390E-04   1   4   5   5
 1.3679701905238140E-03   1   5   1   5
-4.9705026912935435E-05   1   5   2   2
-5.6613553216407480E-05   1   5   2   3
 1.7393365965811600E-04   1   5   2   4
 9.0062758954863751E-05   1   5   2   5
 1.1763988682953978E-04   1   5   3   3
 1.3550991029039338E-04   1   5   3   4
-1.9567369657724950E-05   1   5   3   5
-5.6596773207852018E-05   1   5   4   4
 7.2703371863219659E-05   1   5   4   5
-2.8239538592790547E-05   1   5   5   5
 5.4708636876590805E-02   2   2   2   2
-2.8926908132710416E-04   2   2   2   3
-9.0787057886720831E-05   2   2   2   4
-3.5493650840879380E-05   2   2   2   5
 5.1301671903421914E-02   2   2   3   3
-3.9410804895455642E-05   2   2   3   4
-9.1431248005404664E-05   2   2   3   5
 4.9553848902696235E-02   2   2   4   4
 4.6625505814843252E-05   2   2   4   5
 4.9705321154045239E-02   2   2   5   5
 1.8464858078967711E-03   2   3   2   3
 1.6356884148897396E-05   2   3   2   4
-1.8406939452457460E-05   2   3   2   5
 1.0010382105654598E-04   2   3   3   3
-1.7556489398645842E-05   2   3   3   4
 1.3078817762734030E-05   2   3   3   5
 4.1397815144384355E-05   2   3   4   4
-7.6196493167988733E-05   2   3   4   5
 1.3044422336735200E-04   2   3   5   5
 1.6730966388773750E-03   2   4   2   4
 1.8914065975115878E-04   2   4   2   5
 2.1618517545736528E-06   2   4   3   3
-5.1794027004337025E-05   2   4   3   4
 3.7510554032677029E-04   2   4   3   5
 1.4804535279619284E-04   2   4   4   4
-1.6808310348350411E-05   2   4   4   5
-1.4197183793960311E-04   2   4   5   5
 1.1574594594607169E-03   2   5   2   5
 6.7449720651069172E-05   2   5   3   3
 4.0810926510150919E-05   2   5   3   4
 1.6433029072239835E-04   2   5   3   5
-2.7835282741576907E-05   2   5   4   4
 6.1366551120253785E-05   2   5   4   5
 1.3244627958500734E-05   2   5   5   5
 5.4286325549697340E-02   3   3   3   3
-3.1056699374647532E-05   3   3   3   4
-9.1487086679715692E-05   3   3   3   5
 4.9544208630123272E-02   3   3   4   4
-4.1745440698653772E-05   3   3   4   5
 4.9378975608619688E-02   3   3   5   5
 1.1076189712913537E-03   3   4   3   4
-5.5250053679993367E-05   3   4   3   5
-4.3612149008629466E-05   3   4   4   4
-9.2648359115741496E-06   3   4   4   5
-3.3488952324285967E-05   3   4   5   5
 1.5428695376637077E-03   3   5   3   5
 4.4389953098406145E-05   3   5   4   4
 1.2365039701573966E-05   3   5   4   5
 2.4085693950816919E-05   3   5   5   5
 5.1003631703561918E-02   4   4   4   4
-2.0346708818588593E-04   4   4   4   5
 4.8181459600725875E-02   4   4   5   5
 1.7324432869122804E-03   4   5   4   5
-2.4049910197506774E-04   4   5   5   5
 5.1548610735423411E-02   5   5   5   5
-3.6633993077761641E-02   1   1   0   0
 2.1509151092197085E-04   1   2   0   0
 1.3330816398325452E-04   1   3   0   0
 4.8917953266576068E-05   1   4   0   0
 1.2471067564524544E-04   1   5   0   0
-8.6988671894772981E-02   2   2   0   0
 3.4799056409407999E-04   2   3   0   0
-5.7367448323392936E-04   2   4   0   0
-2.4693671012848800E-05   2   5   0   0
-8.6206889249650961E-02   3   3   0   0
 5.3962773776195105E-05   3   4   0   0
-4.6794664064841508E-04   3   5   0   0
-6.3187521854524295E-02   4   4   0   0
 1.2789423180798728E-05   4   5   0   0
-6.3328623035076026E-02   5   5   0   0
-2.4139057100557957E+02   0   0   0   0
