&FCI NORB=   5,NELEC=   2,MS2= 1,
  ORBSYM=1,1,1,1,1,
  ISYM=0,
 /
 7.5364719042527048E-02   1   1   1   1
 2.0230811251112520E-04   1   1   1   2
 8.6765862911688949E-05   1   1   1   3
-3.2634544624222063E-05   1   1   1   4
-7.8446148952382574E-07   1   1   1   5
 7.1393884248793518E-02   1   1   2   2
 4.0218593344651922E-05   1   1   2   3
 3.6537700980768446E-04   1   1   2   4
-1.2406628267719001E-05   1   1   2   5
 7.1319066849752186E-02   1   1   3   3
-5.9353044935566904E-05   1   1   3   4
-3.1079552330641095E-04   1   1   3   5
 6.8704324609088915E-02   1   1   4   4
 1.6169725068689706E-04   1   1   4   5
 6.9313485204681238E-02   1   1   5   5
 1.8234916072859732E-03   1   2   1   2
 4.1935359999309574E-06   1   2   1   3
-1.4920257485724048E-04   1   2   1   4
-2.9075863314036868E-05   1   2   1   5
-3.9694711207205127E-04   1   2   2   2
-3.2337367299490688E-04   1   2   2   3
 3.8775146956909465E-05   1   2   2   4
-6.2907130282735374E-07   1   2   2   5
 1.6302741061442955E-04   1   2   3   3
-1.3079198271271317E-05   1   2   3   4
-9.8079244161677334E-05   1   2   3   5
 6.8434207317269908E-05   1   2   4   4
-1.3153694170023200E-04   1   2   4   5
-2.6992135708806268E-04   1   2   5   5
 1.8085491917930194E-03   1   3   1   3
-4.2318913607965224E-05   1   3   1   4
 1.5065418812477207E-04   1   3   1   5
-3.7576855602839521E-04   1   3   2   2
 5.7402535304581258E-05   1   3   2   3
-4.7978872910676441E-05   1   3   2   4
 9.7101094512290929E-05   1   3   2   5
 2.7553806466128775E-04   1   3   3   3
-2.1436242281557341E-05   1   3   3   4
 7.6486231067975937E-05   1   3   3   5
 6.3063398375158114E-06   1   3   4   4
-2.6904102035834123E-04   1   3   4   5
-8.6015860347960330E-06   1   3   5   5
 1.0869622045998760E-03   1   4   1   4
 1.7994934288821090E-04   1   4   1   5
 3.9894746305882451E-05   1   4   2   2
 4.5927975582345563E-06   1   4   2   3
 9.4580628201733043E-05   1   4   2   4
-1.1560812359658164E-04   1   4   2   5
-8.8760914555292361E-05   1   4   3   3
 1.3479287796378991E-05   1   4   3   4
 6.5260499381596766E-05   1   4   3   5
 4.2681550866269467E-06   1   4   4   4
 1.1032663381281033E-05   1   4   4   5
-1.8198017007116929E-04   1   4   5   5
 1.3704737085122637E-03   1   5   1   5
 4.5627758658257583E-05   1   5   2   2
 5.7376240224002699E-05   1   5   2   3
-1.6950710386547563E-04   1   5   2   4
 8.6773131989173637E-05   1   5   2   5
-1.2260352506556228E-04   1   5   3   3
-1.3364325670858453E-04   1   5   3   4
-2.4502785632375744E-05   1   5   3   5
 5.2879463026792980E-05   1   5   4   4
 7.1864942002891356E-05   1   5   4   5
 2.8492194386649359E-05   1   5   5   5
 7.4547726814806828E-02   2   2   2   2
-2.8824546325448882E-04   2   2   2   3
-8.6708697988813107E-05   2   2   2   4
 3.3855754585627903E-05   2   2   2   5
 7.1133739224306713E-02   2   2   3   3
-4.5206950514156411E-05   2   2   3   4
 9.3690745310682643E-05   2   2   3   5
 6.9194747764639339E-02   2   2   4   4
-4.7045589482087066E-05   2   2   4   5
 6.9340760770023352E-02   2   2   5   5
 1.8464128554497054E-03   2   3   2   3
 1.6688907738997681E-05   2   3   2   4
 1.8461398538285667E-05   2   3   2   5
 1.0157511567893970E-04   2   3   3   3
-1.7440841384350642E-05   2   3   3   4
-1.3354486286888972E-05   2   3   3   5
 4.2741307769646428E-05   2   3   4   4
 7.6060831190948738E-05   2   3   4   5
 1.2932387679811023E-04   2   3   5   5
 1.6770795286167818E-03   2   4   2   4
-1.9116894686356317E-04   2   4   2   5
 6.1504032372255253E-06   2   4   3   3
-5.0140027711401944E-05   2   4   3   4
-3.8184631186679246E-04   2   4   3   5
 1.5274234286951548E-04   2   4   4   4
 1.6580884510648482E-05   2   4   4   5
-1.3311240805653283E-04   2   4   5   5
 1.1552921560604818E-03   2   5   2   5
-6.7839386178887085E-05   2   5   3   3
-4.2052041928770673E-05   2   5   3   4
 1.6379116554028508E-04   2   5   3   5
 2.6102995214615652E-05   2   5   4   4
 6.0247701260891215E-05   2   5   4   5
-1.4783241509371364E-05   2   5   5   5
 7.4111137160656426E-02   3   3   3   3
-3.6936166791987584E-05   3   3   3   4
 9.3778340510948630E-05   3   3   3   5
 6.9177994096079429E-02   3   3   4   4
 4.3022592667311802E-05   3   3   4   5
 6.9008014133192547E-02   3   3   5   5
 1.1077065143714957E-03   3   4   3   4
 5.5260523228664635E-05   3   4   3   5
-4.9167902811677954E-05   3   4   4   4
 9.0012469449003100E-06   3   4   4   5
-3.8485614372888204E-05   3   4   5   5
 1.5503583294864413E-03   3   5   3   5
-4.3386246757859718E-05   3   5   4   4
 1.1949952772685678E-05   3   5   4   5
-2.5199978833406643E-05   3   5   5   5
 7.0445860673861493E-02   4   4   4   4
 2.0519202708519594E-04   4   4   4   5
 6.7614834661887627E-02   4   4   5   5
 1.7314874375230877E-03   4   5   4   5
 2.3557942358082602E-04   4   5   5   5
 7.0982554742319209E-02   5   5   5   5
-7.7208546368452299E-02   1   1   0   0
 2.6833639985293569E-04   1   2   0   0
-1.0959503638575358E-05   1   3   0   0
-1.3654884382889603E-04   1   4   0   0
 6.7651482194465244E-05   1   5   0   0
-1.4736525134722675E-01   2   2   0   0
 3.5051670488697685E-04   2   3   0   0
-5.8511706457039072E-04   2   4   0   0
 2.2752492114629505E-05   2   5   0   0
-1.4655046847823180E-01   3   3   0   0
 6.8693362362975307E-05   3   4   0   0
 4.7496665322852309E-04   3   5   0   0
-1.2315912874335208E-01   4   4   0   0
-1.0949774719474153E-05   4   5   0   0
-1.2328283269560202E-01   5   5   0   0
-2.4132923453958679E+02   0   0   0   0
