&FCI NORB=   5,NELEC=   2,MS2= 1,
  ORBSYM=1,1,1,1,1,
  ISYM=0,
 /
 7.9104285159923210E-02   1   1   1   1
 2.3182362484279310E-04   1   1   1   2
-1.1845042194647568E-04   1   1   1   3
-1.0149150371416981E-03   1   1   1   4
-2.4953701566549698E-04   1   1   1   5
 7.5806583329218927E-02   1   1   2   2
-1.1794431208109906E-04   1   1   2   3
 8.5087828313988936E-04   1   1   2   4
 9.4912140042862324E-04   1   1   2   5
 7.4728684473698140E-02   1   1   3   3
-5.7355172314478662E-04   1   1   3   4
 4.1534721520953470E-04   1   1   3   5
 6.9493858460770191E-02   1   1   4   4
-6.5782602138488445E-04   1   1   4   5
 7.0747177284403301E-02   1   1   5   5
 1.5494003376342160E-03   1   2   1   2
 2.1302551385479139E-05   1   2   1   3
 1.5479403317048316E-05   1   2   1   4
 1.7451893141894643E-05   1   2   1   5
 2.9793736581583478E-05   1   2   2   2
-1.9808022762348571E-04   1   2   2   3
 1.5509386372325163E-05   1   2   2   4
-1.4213018980005262E-04   1   2   2   5
 3.7612649998842340E-05   1   2   3   3
 1.8133245190161489E-05   1   2   3   4
 5.1651858741040297E-05   1   2   3   5
 7.2756291606311031E-05   1   2   4   4
-5.8031854722692363E-05   1   2   4   5
 3.0348094122352424E-05   1   2   5   5
 1.4967691809703192E-03   1   3   1   3
-3.7562229916806206E-04   1   3   1   4
-2.5913913752010666E-04   1   3   1   5
 3.0014224912067883E-04   1   3   2   2
-1.5497174451543577E-04   1   3   2   3
 1.4493968114928958E-04   1   3   2   4
 7.6077765896770372E-05   1   3   2   5
-1.0089566410744939E-04   1   3   3   3
-3.5134273258186056E-04   1   3   3   4
 3.7466277378140357E-05   1   3   3   5
-4.9493792454851233E-05   1   3   4   4
 9.5907115882101036E-05   1   3   4   5
-8.6987297889662115E-05   1   3   5   5
 1.7156314492027627E-03   1   4   1   4
 5.5415509207171753E-05   1   4   1   5
-1.3966728997075208E-03   1   4   2   2
 2.2808016643358455E-04   1   4   2   3
-2.0789862205397339E-04   1   4   2   4
-5.1830177951375518E-04   1   4   2   5
-4.9121974206594015E-04   1   4   3   3
 6.9965989687265507E-04   1   4   3   4
-1.5029331986545044E-04   1   4   3   5
 6.1543563126642813E-05   1   4   4   4
 5.4503024480343266E-05   1   4   4   5
-4.9121812156937758E-04   1   4   5   5
 1.3589824255054268E-03   1   5   1   5
-2.4917029965948728E-04   1   5   2   2
 1.8751967732190560E-04   1   5   2   3
-3.5184416700702412E-04   1   5   2   4
-7.6833753423445351E-05   1   5   2   5
 5.6394399941215747E-05   1   5   3   3
 1.6796978514423366E-04   1   5   3   4
 1.7446831795095118E-05   1   5   3   5
 6.2180039302835283E-05   1   5   4   4
 2.0462363417189993E-06   1   5   4   5
-1.0377745743015462E-06   1   5   5   5
 7.8964953321383161E-02   2   2   2   2
-2.7008240546890069E-04   2   2   2   3
 8.6059671856021462E-04   2   2   2   4
 9.4768187226019433E-04   2   2   2   5
 7.5110305819535580E-02   2   2   3   3
-7.3530717265611742E-04   2   2   3   4
 3.9703920615616865E-04   2   2   3   5
 6.9774957890512801E-02   2   2   4   4
-4.6916041122215240E-04   2   2   4   5
 7.0975701042213096E-02   2   2   5   5
 1.5241450429810523E-03   2   3   2   3
-1.8071697785621660E-05   2   3   2   4
 1.1566309139873342E-05   2   3   2   5
-1.5301599198513975E-05   2   3   3   3
 1.1641765898159932E-04   2   3   3   4
 2.4007061521014326E-05   2   3   3   5
 6.9737924932228261E-05   2   3   4   4
-6.2447384476625715E-05   2   3   4   5
-2.7162698703433417E-05   2   3   5   5
 1.4704248204218905E-03   2   4   2   4
 4.6436182452764331E-04   2   4   2   5
 4.8257685096024131E-04   2   4   3   3
-1.8912031865800567E-04   2   4   3   4
 1.1774804020283283E-05   2   4   3   5
 1.7133628927465150E-04   2   4   4   4
-5.7081646613006429E-05   2   4   4   5
 2.7046516542074118E-04   2   4   5   5
 1.7723872071735338E-03   2   5   2   5
 2.4466872892477159E-04   2   5   3   3
-2.7629143020514778E-04   2   5   3   4
 2.4942479833166351E-04   2   5   3   5
-8.8059848397845173E-05   2   5   4   4
-1.3936593874875217E-04   2   5   4   5
 5.5833874873290805E-04   2   5   5   5
 7.7607033645914314E-02   3   3   3   3
 2.1290919633414757E-05   3   3   3   4
 1.8767046576982264E-04   3   3   3   5
 6.9736461446395823E-02   3   3   4   4
-5.8329321899677734E-04   3   3   4   5
 7.0178097573933479E-02   3   3   5   5
 1.5363799072084501E-03   3   4   3   4
-2.4678418042950136E-04   3   4   3   5
-3.2565551466224679E-05   3   4   4   4
 5.6528720799524131E-05   3   4   4   5
-4.3829428604852676E-04   3   4   5   5
 1.2161472031792559E-03   3   5   3   5
-5.8861823649282009E-05   3   5   4   4
-8.4151971923441320E-05   3   5   4   5
 1.8746465551374092E-04   3   5   5   5
 6.8748101060545297E-02   4   4   4   4
-7.3865891706167519E-04   4   4   4   5
 6.6732582087965064E-02   4   4   5   5
 1.2205324323768794E-03   4   5   4   5
-7.7793316554535311E-04   4   5   5   5
 7.0529415475608662E-02   5   5   5   5
-8.3917190912998582E-02   1   1   0   0
-1.8714037433000346E-04   1   2   0   0
-5.8174304586563336E-04   1   3   0   0
 1.7597099878973767E-03   1   4   0   0
 3.2735730050129335E-04   1   5   0   0
-1.5844136525412425E-01   2   2   0   0
 2.3288052049381838E-04   2   3   0   0
-2.1623318388088253E-03   2   4   0   0
-1.8913671788605743E-03   2   5   0   0
-1.5587623512947713E-01   3   3   0   0
 9.5194286410424692E-04   3   4   0   0
-1.3431595479619514E-03   3   5   0   0
-1.3243696850818715E-01   4   4   0   0
 1.1687363243937747E-03   4   5   0   0
-1.3419788553980322E-01   5   5   0   0
-1.9833989191585420E+02   0   0   0   0
