105
Lattice="11.45512985522207 0.0 0.0 5.727564927611035 9.92043345827187 0.0 0.0 0.0 31.691342951089922" Properties=species:S:1:pos:R:3:tags:I:1:forces:R:3 energy=-424.457763671875 free_energy=-424.457763671875 stress="0.006226979661732912 1.101754605770111e-06 -2.407468855381012e-07 1.101754605770111e-06 0.006279507651925087 1.8491409718990326e-06 -2.407468855381012e-07 1.8491409718990326e-06 0.006435051094740629" pbc="T T F"
Al       1.40410429       0.88406732       9.96325473        6       0.00013678       0.00018364       0.00034869
Al       4.26830504       0.88175503       9.97320682        6       0.00014341       0.00018368       0.00078613
Al       7.13108748       0.88178627       9.97757514        6       0.00019391       0.00023261       0.00070649
Al       9.99410392       0.88384490       9.97165396        6       0.00012702       0.00027218       0.00057137
Al       2.83355651       3.36605544       9.97137359        6       0.00009940       0.00048955       0.00047632
Al       5.69824634       3.36313024       9.97468272        6       0.00010790       0.00032883      -0.00006493
Al       8.56152073       3.36343070       9.97419726        6       0.00018940       0.00035331       0.00002847
Al      11.42619578       3.36616928       9.97175368        6       0.00019965       0.00042568       0.00018890
Al       4.26577108       5.84554775       9.97920907        6       0.00010947       0.00064819       0.00083235
Al       7.13210870       5.84366498       9.97853801        6       0.00012851       0.00053393       0.00042756
Al       9.99600059       5.84407522       9.98197605        6       0.00028338       0.00052510       0.00058598
Al      12.85909705       5.84669238       9.98729122        6       0.00021127       0.00059147       0.00115002
Al       5.69951864       8.32448791       9.96796467        6       0.00014740       0.00050956       0.00153458
Al       8.56483737       8.32278610       9.97223863        6       0.00022268       0.00046943       0.00136851
Al      11.42873300       8.32297948       9.98304519        6       0.00024955       0.00050200       0.00171982
Al      14.29007867       8.32579653       9.98074574        6       0.00021489       0.00048784       0.00166340
Al       0.01022061       1.69341924      12.35266086        5       0.00031081      -0.00121018      -0.00177281
Al       2.86972118       1.69563385      12.35658485        5       0.00086654      -0.00344281      -0.00887551
Al       5.73359672       1.69340397      12.35642160        5       0.00010358      -0.00325980      -0.00141183
Al       8.59847781       1.69038340      12.35727150        5       0.00108581      -0.00164913       0.00277573
Al       1.44266612       4.17970246      12.36357880        5      -0.00028785      -0.00107637       0.00195631
Al       4.30012506       4.17974526      12.35333734        5       0.00051454      -0.00094441       0.00302129
Al       7.16660439       4.17720073      12.35328278        5       0.00144244      -0.00066142       0.00272136
Al      10.03664250       4.17655580      12.35595565        5       0.00022368       0.00026000       0.00381364
Al       2.87409381       6.66224455      12.38071277        5      -0.00042909       0.00070267       0.00155245
Al       5.73351410       6.66381067      12.36352841        5       0.00015594       0.00119528       0.00195690
Al       8.60203145       6.66306853      12.36366539        5       0.00147903       0.00053979      -0.00106163
Al      11.46957599       6.66170004      12.37952465        5      -0.00090254       0.00016874      -0.00169556
Al       4.30210342       9.13708143      12.38016742        5       0.00051812       0.00008959      -0.00239948
Al       7.16898576       9.14213517      12.36748532        5       0.00066524      -0.00077970      -0.01065758
Al      10.03474032       9.14005913      12.38381291        5      -0.00158613      -0.00100277      -0.01573245
Al      12.89625110       9.13780571      12.39114596        5       0.00028234      -0.00008265      -0.00635683
Al       0.02053965       0.03481875      14.66785848        4      -0.00011390       0.00035693       0.00238370
Al       2.87680809       0.03785782      14.67278499        4      -0.00041582      -0.00011493       0.00156430
Al       5.73919630       0.03054169      14.69290006        4       0.00010771       0.00002806      -0.00490046
Al       8.60631664       0.02828088      14.69984654        4       0.00191112       0.00009790      -0.00546815
Al       1.44809595       2.49774540      14.64431434        4      -0.00118136       0.00164891       0.00419981
Al       4.30006482       2.49986103      14.63080002        4       0.00082775       0.00145192       0.00491646
Al       7.16554443       2.49222581      14.63663775        4       0.00118792       0.00162062       0.00249853
Al      10.04567207       2.49251335      14.63425446        4      -0.00136347       0.00290884       0.00474446
Al       2.88065400       4.98949097      14.66568139        4      -0.00056604      -0.00008929       0.00125682
Al       5.73558296       4.98948693      14.63862832        4       0.00074055       0.00069224       0.00181161
Al       8.61223366       4.99068253      14.63580522        4      -0.00010552       0.00048046       0.00234439
Al      11.47651066       4.98737135      14.66599025        4      -0.00019883       0.00029749       0.00133553
Al       4.31024770       7.47801930      14.69325716        4       0.00101460      -0.00029950      -0.00436274
Al       7.17434811       7.48846274      14.64617748        4       0.00073045      -0.00227626       0.00474264
Al      10.04358110       7.47898137      14.67112453        4      -0.00153426      -0.00111766       0.00114210
Al      12.90552741       7.48149241      14.69198320        4       0.00000691      -0.00207887      -0.00033682
Al       1.40918753       0.82122150      17.01962152        3       0.00336517       0.00690400       0.00270802
Al       4.27193901       0.82095936      16.98820474        3      -0.00098274       0.00360939       0.00202871
Al       7.15492367       0.81690580      17.00262648        3      -0.00108481       0.00366405      -0.00445271
Al      10.04042943       0.83621561      16.99870518        3      -0.00057099       0.00077664       0.00306956
Al       2.84165720       3.28634808      16.95967686        3       0.00017203       0.00067297       0.00284547
Al       5.70497931       3.29966588      16.92056089        3       0.00112911       0.00118861       0.00608055
Al       8.58622277       3.30266727      16.92070083        3       0.00042518       0.00141797       0.00326767
Al      11.45359798       3.29398848      16.96096919        3      -0.00118945       0.00079997       0.00388368
Al       4.28950293       5.79366303      16.96655508        3       0.00023494       0.00072410       0.00269764
Al       7.15472613       5.81561688      16.92225247        3      -0.00084102      -0.00062699       0.00793687
Al      10.02451174       5.80427217      16.95372374        3      -0.00057927      -0.00121197       0.00614489
Al      12.88597250       5.80248713      16.97983948        3      -0.00062372      -0.00102073       0.00367266
Al       5.73862328       8.30308657      16.98947970        3      -0.00212525      -0.00185931       0.00617770
Al       8.58907176       8.30402252      16.98318949        3      -0.00370436      -0.00462285       0.00356204
Al      11.44695154       8.27779644      16.99674913        3      -0.00007995       0.00040891       0.00268285
Al      14.32091306       8.28126212      17.02835450        3       0.00346348       0.00039341      -0.00290094
Al      -0.05021564       1.66740621      19.42729232        2       0.00047407       0.00098749      -0.00835303
Al       2.78617607       1.62680349      19.33969519        2      -0.00428260      -0.00073651      -0.00653636
Al       5.66045754       1.65198421      19.24488824        2      -0.00462432      -0.00253589      -0.00624863
Al       8.56695567       1.70250720      19.23679367        2       0.00121911      -0.00109779      -0.00296047
Al       1.37213963       4.12340039      19.24696547        2      -0.00139921      -0.00202815      -0.00457817
Al       4.24121792       4.11505441      19.22538545        2      -0.00043949       0.00204194      -0.00625931
Al       7.12689216       4.14251616      19.19133133        2      -0.00169621       0.00304549      -0.00813143
Al       9.97628783       4.12791166      19.23226416        2      -0.00300579      -0.00136159      -0.00922872
Al       2.83482651       6.61127196      19.29602101        2      -0.00474830       0.00244411      -0.00635937
Al       5.68787538       6.66567364      19.24691789        2       0.00187587      -0.00240867      -0.00635243
Al       8.55420847       6.65263434      19.23891872        2      -0.00049617       0.00214073      -0.01050571
Al      11.41605085       6.62979713      19.30628431        2       0.00196087       0.00399530      -0.00829674
Al       4.26988547       9.14308489      19.34306004        2      -0.00105201      -0.00163370      -0.00637587
Al       7.13500485       9.12518404      19.38566510        2       0.00046226       0.00339891      -0.01039208
Al       9.97701787       9.11495120      19.32171149        2      -0.00216080      -0.00009518      -0.00481078
Al      12.82309039       9.06481927      19.31141513        2       0.00312354       0.00585904       0.00205007
Al      -0.38032417      -0.02345131      22.03669389        1       0.01568714      -0.00633201      -0.01126016
Al       2.73366449      -0.04152377      22.16863530        1      -0.00078020      -0.00100198      -0.00086880
Al       5.61053179       0.09403386      21.71040943        1      -0.00159236       0.00347881       0.00327031
Al       8.40230592       0.09573856      21.59180540        1      -0.00830626       0.00207224       0.00271413
Al       1.24965434       2.59542873      21.89195736        1      -0.00256554       0.00314339       0.00240941
Al       4.17280503       2.50574933      21.57096792        1      -0.00454618      -0.00117258       0.00211284
Al       6.99790007       2.53966036      21.48465757        1       0.00344432       0.00262548       0.00082538
Al       9.77415329       2.61168042      21.95870707        1      -0.00270237      -0.00101887      -0.01138572
Al       2.74936105       4.98286013      21.62190061        1       0.00081709       0.00032991       0.00247377
Al       5.63641459       4.98677916      21.49182748        1       0.00324894       0.00082952      -0.00081620
Al       8.43932694       5.04612247      21.48032837        1      -0.00174149      -0.00195728       0.00741002
Al      11.26353744       5.01764554      21.55174268        1      -0.00124397      -0.00225096       0.00521928
Al       4.14416361       7.41576202      21.66352532        1       0.00116109      -0.00047793       0.00395362
Al       7.01001469       7.46262111      21.63883297        1      -0.00076556       0.00015976       0.00401464
Al       9.85315820       7.47320760      21.64428537        1       0.00097513      -0.00476792      -0.00133180
Al      12.72202331       7.43051889      21.97316124        1      -0.00207908      -0.00071888       0.01464049
C        6.08172613       3.87910246      24.70724349        0      -0.05563775      -0.00046354       0.00574244
N        6.98370045       2.95839733      24.38214654        0       0.00252361      -0.00050081       0.00713087
C        8.20102824       3.46549802      24.71967206        0       0.01494515       0.00703979       0.01232562
S        9.72552992       2.79878373      24.35777203        0       0.02213739      -0.01873026      -0.00254528
N        8.03248572       4.66752578      25.35527213        0      -0.01677082      -0.02061908       0.00501408
N        6.65677866       4.97830784      25.34733962        0      -0.00699516       0.01005554      -0.03741793
H        5.01347790       3.80145863      24.51563841        0       0.04015001       0.02499669       0.00912610
H        8.73137093       5.40406435      25.39005290        0      -0.00402562       0.01096899       0.01742837
H        6.45537698       5.89159324      24.91022150        0       0.01418744      -0.02811299       0.01571865
