105
Lattice="11.45512985522207 0.0 0.0 5.727564927611035 9.92043345827187 0.0 0.0 0.0 31.691342951089922" Properties=species:S:1:pos:R:3:tags:I:1:forces:R:3 energy=-424.27642822265625 free_energy=-424.27642822265625 stress="0.005859358236193657 1.5748664736747742e-06 -2.1606683731079102e-07 1.5748664736747742e-06 0.0059127481654286385 8.577480912208557e-07 -2.1606683731079102e-07 8.577480912208557e-07 0.005960757378488779" pbc="T T F"
Al       1.41705999       0.89414168       9.99476820        6       0.00032959      -0.00002031       0.00030011
Al       4.28225230       0.89282348      10.00472008        6       0.00047250       0.00000764       0.00030097
Al       7.14475574       0.89224707      10.00956266        6       0.00052646       0.00002635       0.00063805
Al      10.00852573       0.89294628      10.00292993        6       0.00044113       0.00007818       0.00041023
Al       2.84749832       3.37587191      10.00675234        6       0.00038527      -0.00005146       0.00035066
Al       5.71020553       3.37469200      10.00639587        6       0.00047958      -0.00001431       0.00045044
Al       8.57537543       3.37371636      10.00494460        6       0.00055717      -0.00003548       0.00033880
Al      11.44022398       3.37593266      10.00435405        6       0.00039697      -0.00000112       0.00024692
Al       4.27942640       5.85376646      10.01443185        6       0.00044280      -0.00000294       0.00058150
Al       7.14397539       5.85226118      10.00826857        6       0.00048100       0.00003246       0.00044260
Al      10.01000686       5.85366077      10.01282770        6       0.00056030       0.00000581       0.00057893
Al      12.87289255       5.85476307      10.02189729        6       0.00043356       0.00003689       0.00065354
Al       5.71246906       8.33212137      10.00566536        6       0.00037886       0.00004092       0.00040891
Al       8.57822011       8.33171440      10.00546112        6       0.00048622       0.00002515       0.00038234
Al      11.44281091       8.33177934      10.01924375        6       0.00049441       0.00000015       0.00075769
Al      14.30474265       8.33244762      10.01868025        6       0.00048156       0.00003902       0.00062490
Al       0.01509317       1.69617814      12.38495652        5       0.00099872      -0.00066078       0.00368149
Al       2.87474819       1.69743277      12.39045598        5       0.00206831      -0.00060776      -0.00239944
Al       5.74304232       1.69639901      12.39494490        5      -0.00185768      -0.00155574      -0.00272315
Al       8.61035995       1.69444583      12.38955442        5      -0.00105686      -0.00060112       0.00565474
Al       1.44557772       4.17527003      12.39468618        5       0.00159690       0.00105423       0.00524726
Al       4.30926214       4.17844462      12.39764825        5      -0.00060576      -0.00050110       0.00077679
Al       7.17894674       4.17501477      12.38095118        5      -0.00136791       0.00090774       0.00968058
Al      10.04178866       4.17434485      12.38848706        5       0.00066207       0.00148386       0.00659762
Al       2.87834152       6.66045758      12.41188522        5       0.00017975      -0.00164134       0.00285671
Al       5.74232474       6.66048439      12.39765827        5      -0.00043624      -0.00110063       0.00307174
Al       8.60783186       6.65936227      12.39645429        5       0.00115330       0.00063381       0.00180514
Al      11.47362064       6.65863533      12.41367975        5       0.00005435       0.00021968       0.00114900
Al       4.31039243       9.13756568      12.39974771        5       0.00032736      -0.00035394       0.00349409
Al       7.17072759       9.13877704      12.39378527        5       0.00121676      -0.00019832      -0.00625618
Al      10.03623099       9.13687144      12.40273324        5       0.00109013       0.00036892      -0.00528566
Al      12.90565428       9.13510547      12.41128826        5      -0.00194142       0.00080850      -0.00104460
Al       0.01609559       0.03476276      14.68957457        4       0.00017502       0.00013468       0.00180842
Al       2.86722346       0.03358174      14.68211935        4       0.00067932       0.00005049       0.00161330
Al       5.73611832       0.02722973      14.69408321        4       0.00063789       0.00003615       0.00172236
Al       8.60451743       0.02988848      14.70910870        4       0.00097778       0.00020205       0.00109017
Al       1.44255359       2.50991947      14.69082492        4       0.00032054      -0.00039844       0.00035076
Al       4.29903252       2.50591951      14.68481572        4      -0.00000464      -0.00030583      -0.00215269
Al       7.17207842       2.50346523      14.68484245        4      -0.00010108      -0.00033401      -0.00625868
Al      10.04645992       2.50930617      14.68542889        4      -0.00261718      -0.00201772      -0.00405197
Al       2.87250108       4.99390607      14.70652679        4       0.00033857      -0.00109012      -0.00140825
Al       5.74158554       4.99580685      14.68295318        4      -0.00080554      -0.00146802      -0.00189273
Al       8.61538956       4.99978016      14.68401372        4      -0.00093112      -0.00186229      -0.00144346
Al      11.47554881       4.99450701      14.70545168        4      -0.00087765      -0.00071124      -0.00226501
Al       4.30817049       7.47646200      14.71060361        4       0.00064977       0.00022378       0.00114920
Al       7.17842986       7.48336680      14.68836502        4      -0.00131264      -0.00050692      -0.00072874
Al      10.04283010       7.47668399      14.70911797        4       0.00013298       0.00026794       0.00006100
Al      12.90554261       7.47810656      14.72879977        4      -0.00035791      -0.00047122      -0.00044664
Al       1.40114942       0.84319634      17.02538034        3       0.00065361      -0.00050863       0.00211012
Al       4.25063000       0.82109499      16.98672841        3       0.00035478       0.00007453       0.00201848
Al       7.14079631       0.81861140      17.00590370        3       0.00060886       0.00088225       0.00115499
Al      10.02202517       0.84251304      17.02271441        3       0.00007064      -0.00158231       0.00104294
Al       2.82652628       3.29205580      17.00253130        3       0.00062100       0.00054973      -0.00015430
Al       5.69066727       3.28872729      16.96429332        3       0.00159415       0.00606706      -0.00131727
Al       8.58276728       3.30026098      16.96119278        3      -0.00103811       0.00486910      -0.00073846
Al      11.44212277       3.30060455      16.99981531        3      -0.00005152       0.00064007       0.00191682
Al       4.26994755       5.80145204      17.00134602        3      -0.00007559      -0.00038312      -0.00119427
Al       7.14012903       5.82148448      16.96077938        3       0.00081642      -0.00267318       0.00124044
Al      10.02288508       5.82009807      17.00181298        3      -0.00229469      -0.00576979       0.00037671
Al      12.86692976       5.79489109      17.02936249        3       0.00114495       0.00168073       0.00088311
Al       5.71644395       8.30858813      17.01311176        3       0.00010663       0.00017969       0.00148069
Al       8.56817147       8.29907725      17.00603247        3       0.00012236       0.00107104       0.00087195
Al      11.43362213       8.28680955      17.04156814        3       0.00029520      -0.00500672      -0.00771973
Al      14.30837906       8.28914343      17.04581619        3      -0.00048215      -0.00524078      -0.00375949
Al      -0.06224430       1.66982185      19.40239508        2      -0.00098080      -0.00063287       0.00303271
Al       2.75774458       1.62940413      19.35755063        2       0.00295328      -0.00123042       0.00620650
Al       5.61867208       1.62991410      19.22642259        2       0.00064023       0.00087476       0.00357773
Al       8.57113205       1.68749177      19.25484748        2      -0.00075825      -0.00037366       0.00093444
Al       1.36035190       4.11469286      19.27508130        2       0.00009668       0.00021755       0.00604498
Al       4.22041536       4.11800699      19.22819641        2      -0.00084620      -0.00221511       0.00210257
Al       7.10791190       4.14946037      19.17661589        2       0.00041180      -0.00294175      -0.00030729
Al       9.96729694       4.12584769      19.23318378        2       0.00077301       0.00017854       0.00330881
Al       2.81322136       6.61946171      19.32781008        2      -0.00032068      -0.00141007       0.00075665
Al       5.69321485       6.65987496      19.22881029        2      -0.00086669      -0.00020023       0.00451949
Al       8.54558311       6.65890022      19.23651848        2      -0.00061433       0.00221165      -0.00098311
Al      11.41536253       6.63815058      19.34904989        2       0.00169066       0.00061804      -0.00320275
Al       4.24757578       9.11820541      19.34797442        2      -0.00083185      -0.00104156      -0.00574334
Al       7.10828873       9.12658125      19.36331957        2       0.00015046      -0.00023108       0.00319815
Al       9.94611416       9.10188537      19.33099735        2       0.00024895       0.00014750       0.00198273
Al      12.82165938       9.09936477      19.32516392        2      -0.00064157      -0.00283483       0.00362081
Al      -0.31676786      -0.10312490      21.95214050        1       0.00045644      -0.00043205      -0.00234217
Al       2.71952152      -0.03680202      22.19088433        1       0.00100957       0.00104283      -0.00696682
Al       5.58565370       0.06750674      21.67065534        1       0.00041161       0.00080180      -0.00350955
Al       8.37275310       0.06114564      21.61858184        1       0.00424001      -0.00163564      -0.00346014
Al       1.21791662       2.60139171      21.89763955        1      -0.00037211      -0.00084834       0.00129830
Al       4.15941891       2.48739727      21.59663671        1       0.00070343       0.00071750      -0.00907935
Al       6.98624126       2.53166761      21.44116764        1       0.00157253      -0.00518887       0.00352489
Al       9.78024827       2.56504384      21.92623771        1      -0.00176027      -0.00456863      -0.01287135
Al       2.76049401       4.95757351      21.65048035        1      -0.00205866      -0.00273690      -0.00230574
Al       5.63531853       4.96819701      21.42410513        1      -0.00274023      -0.00082635       0.00906906
Al       8.44699292       5.00468688      21.43235414        1       0.00270643      -0.00119274       0.00095814
Al      11.25480608       4.99244206      21.60434608        1       0.00192286      -0.00124965      -0.00538837
Al       4.13310051       7.36690684      21.70227731        1       0.00106785       0.00180467       0.00145658
Al       7.03275032       7.44056079      21.65826350        1      -0.00120279      -0.00026786      -0.00058637
Al       9.86938925       7.44182765      21.67438487        1       0.00033280       0.00236891      -0.00457163
Al      12.69401029       7.39998475      22.07572683        1       0.00049702       0.00018383      -0.00017259
C        6.09710518       3.95341537      24.56507142        0       0.04063814       0.05726451      -0.00008925
N        6.93519970       2.92780732      24.43482565        0       0.02373178       0.02930007       0.00980954
C        8.19393005       3.42726277      24.58269122        0      -0.06379425       0.03550888      -0.00959942
S        9.66520520       2.60383475      24.33361001        0       0.00262885      -0.00887625       0.00390328
N        8.12533547       4.79364442      24.76115011        0      -0.02574929      -0.01014010      -0.00265147
N        6.75365509       5.14123375      24.87061371        0       0.02594816      -0.04605819      -0.00818601
H        5.02657166       3.92943002      24.37873271        0      -0.00864843      -0.00495298       0.00520202
H        8.81117080       5.31572705      25.30423889        0      -0.02478116       0.00266140      -0.02478847
H        6.49083168       5.96400138      24.30086803        0       0.01335665      -0.01884105       0.01316338
