105
Lattice="11.45512985522207 0.0 0.0 5.727564927611035 9.92043345827187 0.0 0.0 0.0 31.691342951089922" Properties=species:S:1:pos:R:3:tags:I:1:forces:R:3 energy=-424.26800537109375 free_energy=-424.26800537109375 stress="0.005978346336632967 1.3639219105243683e-06 -2.6263296604156494e-07 1.3639219105243683e-06 0.006030849646776915 1.3746321201324463e-06 -2.6263296604156494e-07 1.3746321201324463e-06 0.006134151481091976" pbc="T T F"
Al       1.41294540       0.89233769       9.98460541        6       0.00028031       0.00024945      -0.00004837
Al       4.27704602       0.89082167       9.99107093        6       0.00036971       0.00024778       0.00074942
Al       7.14079540       0.89032933       9.99572195        6       0.00011690       0.00018938       0.00064616
Al      10.00492363       0.89167747       9.99121100        6       0.00007475       0.00013687       0.00017021
Al       2.84272049       3.37299338       9.99143114        6       0.00027751       0.00047640       0.00084385
Al       5.70596534       3.37204817       9.99030782        6       0.00020388       0.00028873       0.00087569
Al       8.57134356       3.37158598       9.98972925        6       0.00015104       0.00026335       0.00068488
Al      11.43631646       3.37314043       9.99111846        6       0.00017690       0.00043116       0.00038853
Al       4.27499731       5.85228856       9.99877689        6       0.00021200       0.00027386       0.00088044
Al       7.13985148       5.85103716       9.99345345        6       0.00016017       0.00021960       0.00075700
Al      10.00515018       5.85161211       9.99880388        6       0.00031142       0.00032443       0.00063135
Al      12.86853072       5.85278662      10.00627758        6       0.00022780       0.00037589       0.00093506
Al       5.70873116       8.33117497       9.99220513        6       0.00012652       0.00019180       0.00063572
Al       8.57331391       8.33021287       9.99309405        6       0.00036065       0.00027930       0.00063606
Al      11.43814160       8.32965277      10.00364619        6       0.00029335       0.00039553       0.00112198
Al      14.30092107       8.33122615      10.00447545        6       0.00010699       0.00025486       0.00083118
Al       0.01845962       1.69873472      12.37212840        5      -0.00080821       0.00057131       0.00100795
Al       2.87881225       1.69892803      12.37616498        5      -0.00021904       0.00120094       0.00054987
Al       5.73828825       1.69597981      12.38126317        5       0.00072138       0.00066794       0.00056643
Al       8.60352380       1.69569009      12.37793263        5       0.00021100       0.00051914       0.00114439
Al       1.44947084       4.18292605      12.39152571        5      -0.00072831      -0.00026540      -0.00073498
Al       4.30822069       4.18208866      12.38393852        5       0.00022109      -0.00074325       0.00066978
Al       7.17386009       4.17984428      12.38219297        5       0.00008992      -0.00041282      -0.00241782
Al      10.04265492       4.18295558      12.38209947        5      -0.00030583      -0.00060455      -0.00011651
Al       2.87704167       6.66189665      12.40107572        5      -0.00015428      -0.00014559      -0.00023136
Al       5.74149932       6.66261240      12.38560034        5      -0.00034049      -0.00107644      -0.00011047
Al       8.61085295       6.66577748      12.38554003        5      -0.00039195      -0.00143627      -0.00133765
Al      11.47401185       6.66415100      12.40160583        5      -0.00010460      -0.00151378      -0.00097152
Al       4.30728056       9.13870323      12.38985371        5      -0.00025948      -0.00041174      -0.00117924
Al       7.17744899       9.14192867      12.37665286        5      -0.00144339      -0.00080437       0.00075600
Al      10.04070153       9.14204700      12.39375522        5      -0.00058618      -0.00139770      -0.00225886
Al      12.89980041       9.14007683      12.40174108        5       0.00091370      -0.00108512      -0.00081542
Al       0.01408883       0.03308430      14.66463670        4       0.00097281       0.00084219       0.00412314
Al       2.87751014       0.03892560      14.68342525        4      -0.00035711      -0.00000917       0.00120193
Al       5.74195375       0.03079054      14.70061672        4       0.00015700       0.00035994       0.00183367
Al       8.60548572       0.03060122      14.70158717        4       0.00028079       0.00037351       0.00151183
Al       1.44927465       2.51197909      14.67195905        4      -0.00076971      -0.00006931       0.00205948
Al       4.30276580       2.50825736      14.67485729        4       0.00010714       0.00029529       0.00151988
Al       7.17002714       2.50177086      14.66988840        4       0.00046566       0.00048385       0.00157844
Al      10.04390316       2.50125165      14.65735640        4       0.00051642       0.00139729       0.00302952
Al       2.88006052       4.99435033      14.69748334        4      -0.00027908       0.00030285       0.00114344
Al       5.73928029       4.99418358      14.67414973        4       0.00032193       0.00051348       0.00106927
Al       8.61361765       4.99787218      14.66622545        4       0.00029186       0.00047703       0.00193741
Al      11.47802898       4.99550748      14.69561094        4       0.00002404       0.00035044       0.00155656
Al       4.30837199       7.47630073      14.69598443        4       0.00032939       0.00044386       0.00180451
Al       7.17651188       7.48319552      14.67072455        4       0.00018476       0.00032913       0.00193872
Al      10.04873162       7.48019166      14.69690612        4      -0.00062579      -0.00020075       0.00123653
Al      12.90761472       7.48058846      14.71234772        4      -0.00028918      -0.00011720       0.00134911
Al       1.40512232       0.83507538      17.01250383        3      -0.00097702       0.00060276       0.00085229
Al       4.26187275       0.82424881      17.00044748        3      -0.00086436      -0.00075220       0.00034550
Al       7.14172215       0.81816923      17.01335740        3       0.00054411       0.00109373       0.00058109
Al      10.01889809       0.83980294      17.00236087        3       0.00036669       0.00056919       0.00216102
Al       2.82936063       3.30494741      16.99076279        3      -0.00009633      -0.00014634       0.00205247
Al       5.69718271       3.30768005      16.95557989        3      -0.00004237      -0.00267127       0.00117411
Al       8.58867732       3.32167117      16.94433650        3      -0.00060165      -0.00297055       0.00232477
Al      11.44498216       3.31442374      16.99273392        3       0.00030431      -0.00073923       0.00163042
Al       4.27797590       5.80529862      16.99998805        3      -0.00142599      -0.00014712      -0.00129761
Al       7.14908961       5.81958683      16.96032169        3      -0.00109176       0.00046540      -0.00124132
Al      10.02584965       5.80581370      16.99870728        3       0.00013527       0.00196212       0.00018884
Al      12.87887427       5.81547766      17.02492082        3      -0.00073237      -0.00144876       0.00166288
Al       5.71633906       8.29847202      16.99735345        3       0.00045687       0.00126385       0.00205566
Al       8.57417105       8.30207125      16.98568073        3       0.00030039       0.00053695       0.00236419
Al      11.44133687       8.27986652      17.03335479        3       0.00012297       0.00054042       0.00224295
Al      14.30930829       8.28070434      17.03519644        3      -0.00018096       0.00039691       0.00184300
Al      -0.05819771       1.66773913      19.38112532        2      -0.00058868       0.00089157       0.00069924
Al       2.76877055       1.62495808      19.32008638        2      -0.00170234       0.00142927       0.00634275
Al       5.62822854       1.62637528      19.24186354        2      -0.00020190       0.00179771      -0.00112844
Al       8.57328624       1.69331243      19.25135402        2      -0.00088799      -0.00036933      -0.00004640
Al       1.36333151       4.13052658      19.29223909        2      -0.00092857      -0.00129254      -0.00559141
Al       4.22358231       4.12221649      19.22590690        2       0.00022817       0.00026231       0.00102216
Al       7.10576573       4.14398004      19.16742570        2       0.00095063       0.00091430       0.00287791
Al       9.97731535       4.12437877      19.23597252        2      -0.00225208       0.00001874      -0.00300355
Al       2.81230891       6.62358942      19.34459683        2       0.00017731       0.00065151      -0.00417213
Al       5.68409903       6.66929112      19.24152681        2       0.00141544      -0.00082941      -0.00359843
Al       8.54600591       6.67635709      19.22474515        2      -0.00014984      -0.00385679       0.00242331
Al      11.41362992       6.64547326      19.35461083        2       0.00027677      -0.00235374      -0.00025407
Al       4.25434421       9.13073185      19.31385765        2      -0.00089835      -0.00175884       0.00499453
Al       7.11922547       9.12963287      19.34684173        2      -0.00169866      -0.00017008       0.00145028
Al       9.95251533       9.09438913      19.36274398        2      -0.00056088       0.00328347      -0.00680392
Al      12.81966311       9.08008900      19.37004222        2      -0.00009868       0.00176078      -0.00689021
Al      -0.35815415      -0.06905729      21.97120608        1       0.00397473      -0.00479896      -0.00155763
Al       2.70986652      -0.00485500      22.19713450        1       0.00176506      -0.00413456      -0.00415172
Al       5.59515846       0.06814900      21.71759995        1      -0.00161697       0.00002519      -0.00572031
Al       8.38700378       0.09043384      21.61010043        1      -0.00057407      -0.00430744       0.00172021
Al       1.21053342       2.59965146      21.87900365        1       0.00127827       0.00128252       0.00320076
Al       4.15360659       2.49093564      21.54037263        1       0.00074359      -0.00024122       0.00944119
Al       6.99730053       2.52161645      21.45187169        1      -0.00238187       0.00194665      -0.00236099
Al       9.78425265       2.58182451      21.90657892        1      -0.00210652      -0.00288141       0.00799732
Al       2.75159403       4.96675738      21.65519141        1       0.00194379       0.00074020      -0.00120050
Al       5.63417928       4.97163730      21.45017218        1      -0.00022087       0.00086936      -0.00208139
Al       8.43250030       4.99761748      21.43950423        1       0.00035320       0.00283435       0.00096405
Al      11.26442427       4.99389627      21.59607745        1      -0.00274711       0.00038920       0.00190829
Al       4.14362719       7.41366459      21.70702751        1      -0.00164574      -0.00526157      -0.00217192
Al       7.02957236       7.44105995      21.66062565        1       0.00015745       0.00027021       0.00061296
Al       9.84535824       7.39727355      21.69150961        1       0.00289296       0.00649732      -0.00248605
Al      12.72396105       7.42012957      22.09092001        1      -0.00437593      -0.00216518      -0.00406993
C        6.09498526       3.90592482      24.59139032        0       0.01613140       0.00651033      -0.00064459
N        6.96025949       2.90970808      24.41566330        0      -0.00049961      -0.00832141      -0.00112526
C        8.20530880       3.42510612      24.61105677        0      -0.00288514      -0.00018305      -0.00016572
S        9.69297575       2.64241828      24.35742960        0       0.00675374      -0.00765220      -0.01150456
N        8.10424787       4.77621074      24.86773205        0      -0.02348012      -0.01393689      -0.02011699
N        6.72567429       5.07549380      24.99152512        0      -0.00086697       0.03536299      -0.00926664
H        5.02182577       3.85165370      24.42917841        0       0.00384826       0.00415174      -0.00645670
H        8.76995953       5.28676286      25.44175945        0       0.01252048       0.00480809       0.00956871
H        6.45929547       5.93230602      24.48053958        0       0.00014396      -0.01417650      -0.00174647
