105
Lattice="11.45512985522207 0.0 0.0 5.727564927611035 9.92043345827187 0.0 0.0 0.0 31.691342951089922" Properties=species:S:1:pos:R:3:tags:I:1:forces:R:3 energy=-424.42376708984375 free_energy=-424.42376708984375 stress="0.005271752830594778 5.671754479408264e-07 -2.598389983177185e-07 5.671754479408264e-07 0.005337036680430174 1.8910504877567291e-06 -2.598389983177185e-07 1.8910504877567291e-06 0.00552588514983654" pbc="T T F"
Al       1.41432102       0.84959557      10.01790217        6       0.00025411       0.00086351      -0.00377740
Al       4.27908454       0.84888305      10.02321532        6       0.00017284       0.00088780      -0.00409411
Al       7.14232178       0.84874790      10.02339026        6       0.00025493       0.00091080      -0.00372470
Al      10.00507921       0.84953594      10.02091187        6       0.00032402       0.00084327      -0.00355047
Al       2.84588603       3.33127755      10.02142768        6       0.00020578       0.00066656      -0.00364723
Al       5.71049199       3.33032051      10.02270477        6       0.00020175       0.00071847      -0.00349923
Al       8.57434096       3.33053500      10.02490407        6       0.00008340       0.00071173      -0.00382701
Al      11.43729346       3.33184589      10.02251604        6       0.00022937       0.00067916      -0.00353234
Al       4.27770712       5.81190069      10.02516933        6       0.00027804       0.00058592      -0.00381638
Al       7.14307212       5.81102171      10.02758183        6       0.00016501       0.00059635      -0.00404325
Al      10.00696193       5.81176442      10.02994941        6       0.00009510       0.00049939      -0.00410421
Al      12.86941005       5.81203606      10.02941591        6       0.00030468       0.00057172      -0.00385951
Al       5.70974118       8.29006860      10.02182281        6       0.00034243       0.00066414      -0.00444867
Al       8.57531070       8.28978010      10.02558763        6       0.00010941       0.00056937      -0.00476056
Al      11.43842090       8.28991477      10.02890610        6       0.00025314       0.00065941      -0.00451191
Al      14.30083999       8.29054059      10.02480627        6       0.00037220       0.00070517      -0.00410585
Al       0.00210378       1.66436220      12.37930569        5       0.00153197       0.00104145       0.00685395
Al       2.86731255       1.66394181      12.37454521        5       0.00025489       0.00150778       0.00765081
Al       5.73388597       1.66368794      12.38183579        5       0.00014358       0.00151390       0.00732686
Al       8.59807038       1.66415453      12.38481323        5       0.00033185       0.00119159       0.00681039
Al       1.43505493       4.14506355      12.38419452        5       0.00115883      -0.00009633       0.00737536
Al       4.29907083       4.14311410      12.38167059        5       0.00073103       0.00116126       0.00605953
Al       7.16634983       4.14402707      12.38298891        5       0.00001774       0.00066414       0.00705224
Al      10.02956383       4.14499613      12.39051914        5       0.00052037       0.00016635       0.00556046
Al       2.86836220       6.62238270      12.38697013        5       0.00062367       0.00182096       0.00870813
Al       5.73243530       6.62247368      12.38069288        5       0.00037750       0.00163758       0.00734428
Al       8.59850147       6.62155600      12.38614365        5      -0.00006529       0.00184198       0.00789074
Al      11.46016411       6.62180067      12.39045993        5       0.00105434       0.00190663       0.00969988
Al       4.29876133       9.10136324      12.37551020        5       0.00149318       0.00226043       0.00957790
Al       7.16252076       9.10034058      12.37058165        5       0.00036885       0.00219972       0.00942831
Al      10.02769874       9.09822573      12.37512910        5       0.00043854       0.00253526       0.01190672
Al      12.89162382       9.09999371      12.38026942        5       0.00134862       0.00239480       0.01139720
Al       0.00105536       0.01004485      14.66902574        4       0.00045717       0.00081290      -0.00081189
Al       2.86031143       0.00572552      14.65521334        4       0.00125807       0.00123962       0.00031042
Al       5.73399248      -0.00049235      14.66485775        4       0.00059609       0.00213827       0.00071719
Al       8.59933870       0.00145983      14.67213923        4       0.00041580       0.00147987      -0.00007280
Al       1.42520469       2.48922002      14.67484065        4       0.00124179       0.00092216      -0.00194904
Al       4.29400645       2.48902252      14.66697582        4       0.00045572       0.00044435      -0.00143146
Al       7.17029209       2.48575121      14.67206277        4      -0.00012883       0.00014533      -0.00190889
Al      10.02790830       2.49288947      14.68163139        4       0.00079699      -0.00098253      -0.00306513
Al       2.85950223       4.97702950      14.67339870        4       0.00105617      -0.00011250      -0.00093103
Al       5.72702539       4.97637042      14.66471120        4       0.00029689       0.00025053      -0.00206268
Al       8.60189370       4.97307326      14.67580254        4       0.00036702       0.00040619      -0.00262100
Al      11.46104406       4.97327322      14.67987186        4       0.00079468       0.00055503      -0.00086528
Al       4.29423277       7.45777366      14.67622578        4       0.00073643       0.00072283      -0.00114393
Al       7.16118492       7.45439848      14.67188247        4       0.00046008       0.00103131      -0.00137849
Al      10.03265861       7.44841647      14.69163488        4       0.00015517       0.00077944      -0.00269414
Al      12.89069806       7.45406941      14.69335922        4       0.00059777       0.00068601      -0.00150210
Al       1.41446116       0.84460537      16.98321818        3       0.00210034      -0.01212100       0.00047429
Al       4.27700453       0.81880977      16.96883648        3       0.00044133      -0.00069019      -0.00366737
Al       7.16729489       0.81711049      16.98680080        3      -0.00060097      -0.00249918      -0.00188832
Al      10.02828852       0.82940169      17.00141970        3       0.00080291      -0.00201358      -0.00313131
Al       2.85007342       3.30891705      16.97864763        3       0.00149921      -0.00183013      -0.00545928
Al       5.72715898       3.30633796      16.95195093        3      -0.00254949      -0.00205461      -0.00089829
Al       8.59707196       3.30582913      16.97528713        3       0.00129142      -0.00227258      -0.00380395
Al      11.44275159       3.30345228      16.99978731        3       0.00169131      -0.00068393      -0.00340750
Al       4.28209144       5.80541206      16.97718692        3       0.00086340      -0.00014940      -0.00048823
Al       7.16039893       5.79595324      16.94754596        3       0.00026007       0.00112283      -0.00024768
Al      10.03705009       5.77365494      16.99341061        3       0.00017966       0.00152552      -0.00124378
Al      12.88707216       5.79096349      17.00776611        3       0.00099252       0.00218020      -0.00336510
Al       5.71943364       8.28385667      16.99652791        3       0.00372703       0.00216469      -0.00471305
Al       8.59236580       8.27927258      16.97891907        3      -0.00181820       0.00215787      -0.00207321
Al      11.45883949       8.27502402      17.00033099        3       0.00191856       0.00171457      -0.00040643
Al      14.32663473       8.27157468      17.01142216        3      -0.00376847       0.00251916       0.00145904
Al      -0.01483001       1.65526640      19.33603354        2       0.00067882       0.00004364       0.00079604
Al       2.81698626       1.64050969      19.27103754        2       0.00078037      -0.00074556       0.00084996
Al       5.68068326       1.62152383      19.20997190        2       0.00052943       0.00391735      -0.00665628
Al       8.60641268       1.65253392      19.24917113        2      -0.00066764       0.00242879      -0.00392023
Al       1.41070173       4.09607755      19.25380222        2       0.00087756      -0.00008914      -0.00187904
Al       4.28088298       4.13099285      19.22484012        2      -0.00088169      -0.00235948      -0.01012862
Al       7.16243323       4.13418325      19.19042579        2      -0.00311659       0.00568874       0.00141442
Al      10.00214657       4.10108462      19.30261924        2      -0.00104905       0.00138924      -0.00962817
Al       2.85552685       6.64053842      19.32571372        2      -0.00208834      -0.00398189      -0.00658717
Al       5.73854652       6.63660626      19.23897438        2      -0.00054642      -0.00164276      -0.00940553
Al       8.58484685       6.63757379      19.21788553        2       0.00029782      -0.00084432      -0.00667919
Al      11.46461501       6.65178487      19.27655599        2      -0.00197647      -0.00583672       0.00144352
Al       4.29920345       9.11528318      19.32711206        2       0.00121581       0.00120314      -0.00456649
Al       7.16088091       9.11215447      19.28997855        2      -0.00016311       0.00192068       0.00234643
Al      10.01275180       9.10476886      19.28266613        2       0.00095522      -0.00132690       0.00593218
Al      12.89332155       9.10505994      19.38851114        2      -0.00191479      -0.00227839      -0.00283807
Al      -0.13371232      -0.04658008      21.87143334        1      -0.00897847       0.00120139       0.00479675
Al       2.82075534      -0.06683373      21.91049683        1      -0.00217893       0.00144462       0.00779603
Al       5.66898243       0.06833610      21.74495499        1       0.00111780       0.00198664      -0.00135129
Al       8.47510266       0.13195265      21.76995875        1      -0.00259783      -0.00227384      -0.00872238
Al       1.29221619       2.56679335      21.90629920        1      -0.00465378       0.00170272      -0.00242546
Al       4.23130625       2.47050488      21.53130195        1      -0.00427688       0.00057768       0.00333638
Al       7.04530914       2.50287699      21.44001999        1      -0.00018383       0.00674327      -0.00199115
Al       9.82337565       2.58636226      21.87217828        1       0.00489056       0.00530566      -0.00485063
Al       2.88233917       4.94389471      21.57891706        1      -0.00453598      -0.00019177       0.00490202
Al       5.71520004       4.95896910      21.50588818        1       0.00366685       0.00082837      -0.00206939
Al       8.52664113       5.05112110      21.49309137        1      -0.00130555      -0.01021060      -0.00847936
Al      11.46035442       4.99642337      21.50477135        1      -0.01398119       0.00597896       0.00996652
Al       4.26617775       7.42874068      21.66489674        1      -0.00411504      -0.00239283      -0.00499557
Al       7.11681021       7.41229705      21.64035161        1      -0.00271219       0.00202405      -0.00361125
Al      10.00514810       7.42778676      21.60589737        1      -0.00051765       0.00314655       0.00098106
Al      12.86910538       7.37842169      22.03163767        1      -0.00625700       0.00050994       0.01044399
C        5.91240262       3.86964125      24.82354071        0      -0.00352703       0.01236337      -0.01512727
N        6.93787624       3.07731968      24.52205276        0       0.02349099       0.00170417      -0.02018632
C        8.06382272       3.83088154      24.62200594        0       0.00735803      -0.00192631       0.03522490
S        9.65334000       3.40695148      24.18019468        0       0.01348718      -0.03186789       0.01914575
N        7.74457885       5.06671950      25.17208173        0       0.02803100       0.00695278      -0.00656419
N        6.32636574       5.11910520      25.25699630        0       0.04154579       0.00214979       0.01081719
H        4.86546295       3.60120178      24.72428575        0      -0.01203093       0.00921194       0.00312336
H        8.21467651       5.89907771      24.80380291        0      -0.02765450      -0.00990395       0.03118408
H        5.93593092       5.95548038      24.80564484        0      -0.04757448      -0.03702848      -0.02489988
