105
Lattice="11.45512985522207 0.0 0.0 5.727564927611035 9.92043345827187 0.0 0.0 0.0 31.691342951089922" Properties=species:S:1:pos:R:3:tags:I:1:forces:R:3 energy=-424.47418212890625 free_energy=-424.47418212890625 stress="0.005498523823916912 1.3951212167739868e-06 -3.9581209421157837e-07 1.3951212167739868e-06 0.005546946544200182 2.045184373855591e-06 -3.9581209421157837e-07 2.045184373855591e-06 0.005712857469916344" pbc="T T F"
Al       1.42578678       0.83451950      10.00594406        6      -0.00086278       0.00093289       0.00324102
Al       4.28964303       0.83446932      10.00621567        6      -0.00079995       0.00090651       0.00350400
Al       7.15340790       0.83443537      10.00621388        6      -0.00083558       0.00090211       0.00347546
Al      10.01714352       0.83453514      10.00620622        6      -0.00089278       0.00092727       0.00341848
Al       2.85763190       3.31479608      10.00603174        6      -0.00087403       0.00104912       0.00332712
Al       5.72149623       3.31467316      10.00597669        6      -0.00082022       0.00100426       0.00332492
Al       8.58529056       3.31469141      10.00605805        6      -0.00081519       0.00103362       0.00349677
Al      11.44903656       3.31480653      10.00610824        6      -0.00087176       0.00107841       0.00337473
Al       4.28951991       5.79502066      10.00608964        6      -0.00088216       0.00104301       0.00354305
Al       7.15340691       5.79492938      10.00618853        6      -0.00077688       0.00102039       0.00369254
Al      10.01725961       5.79493667      10.00627201        6      -0.00076597       0.00106422       0.00381839
Al      12.88090729       5.79503979      10.00645754        6      -0.00086043       0.00107633       0.00382206
Al       5.72144313       8.27501797      10.00626461        6      -0.00086535       0.00095376       0.00357166
Al       8.58537392       8.27495575      10.00628307        6      -0.00074890       0.00094650       0.00374021
Al      11.44917143       8.27494751      10.00656290        6      -0.00079146       0.00094046       0.00390777
Al      14.31280671       8.27503116      10.00649263        6      -0.00088343       0.00095891       0.00371611
Al       0.00747763       1.65758464      12.39559962        5      -0.00097532      -0.00040727      -0.00446622
Al       2.87038776       1.65750245      12.39356582        5      -0.00097323      -0.00108665      -0.00302857
Al       5.73560484       1.65676637      12.39413540        5       0.00033641      -0.00150119      -0.00287478
Al       8.59929660       1.65705742      12.39631997        5       0.00000714      -0.00105494      -0.00222637
Al       1.43891856       4.13897978      12.39748771        5      -0.00107232       0.00082084      -0.00189333
Al       4.30254630       4.13916932      12.39388538        5      -0.00067359       0.00092216      -0.00317305
Al       7.16756885       4.13862679      12.39506358        5       0.00010950       0.00021170      -0.00073800
Al      10.03160375       4.13915766      12.39679810        5       0.00022551       0.00055130      -0.00129850
Al       2.87074877       6.62003048      12.40102460        5      -0.00127948       0.00085911      -0.00142960
Al       5.73473907       6.61986126      12.39715994        5      -0.00066583       0.00045911      -0.00089181
Al       8.60006511       6.61977913      12.39845586        5       0.00049810       0.00028035       0.00039236
Al      11.46351294       6.61991828      12.40228899        5      -0.00034521       0.00004163       0.00139793
Al       4.30310244       9.09844458      12.39997761        5      -0.00120923      -0.00111192      -0.00294737
Al       7.16689231       9.09855717      12.39689786        5      -0.00037137      -0.00098354      -0.00291231
Al      10.03147583       9.09786322      12.39921001        5      -0.00004347      -0.00132638       0.00064895
Al      12.89507827       9.09773137      12.40139505        5      -0.00038873      -0.00156622      -0.00137039
Al       0.00253767       0.00488038      14.69246364        4      -0.00006173      -0.00100892      -0.00773687
Al       2.86412141       0.00412562      14.69381592        4      -0.00064929      -0.00191345      -0.01292663
Al       5.73079259       0.00264362      14.69660356        4       0.00072702      -0.00318419      -0.01255188
Al       8.59272964       0.00329682      14.69835260        4       0.00172405      -0.00261400      -0.00985565
Al       1.43060522       2.48234530      14.68641989        4      -0.00055736      -0.00027945      -0.00336025
Al       4.29708257       2.48125798      14.67559916        4      -0.00040472       0.00059755      -0.00028925
Al       7.16360367       2.48198598      14.68636451        4       0.00121289      -0.00043727      -0.00452941
Al      10.02760310       2.48366859      14.68567712        4      -0.00013812       0.00026723      -0.00186081
Al       2.86340630       4.96842709      14.68828802        4      -0.00016149      -0.00013061      -0.00513265
Al       5.72909748       4.96688144      14.68388972        4      -0.00020214       0.00028586      -0.00390100
Al       8.59554507       4.96712786      14.69027033        4       0.00081717      -0.00055328      -0.00492276
Al      11.45608928       4.96795004      14.70034001        4       0.00138244      -0.00098533      -0.01015778
Al       4.29504439       7.44798433      14.70158249        4       0.00015746      -0.00024748      -0.00930385
Al       7.16173917       7.44772311      14.69239184        4      -0.00000043      -0.00108926      -0.00796385
Al      10.02460504       7.44710542      14.70698284        4       0.00240339      -0.00175537      -0.00936744
Al      12.88704028       7.44778480      14.70917642        4       0.00138356      -0.00066779      -0.00961239
Al       1.42316626       0.81577787      16.99401641        3      -0.00070988       0.00302011       0.00587168
Al       4.29162257       0.81554527      16.97215326        3      -0.00089140       0.00174524       0.00798383
Al       7.16512285       0.80918349      16.98874533        3      -0.00025528       0.00249833       0.00632782
Al      10.02371286       0.82364622      16.98433895        3       0.00011044       0.00199163       0.00942191
Al       2.85487941       3.30414518      16.95974253        3      -0.00060960       0.00027822       0.01504724
Al       5.72596094       3.30375945      16.96030467        3       0.00020419       0.00104708       0.00666131
Al       8.60418500       3.30609953      16.97632902        3      -0.00265855       0.00004427       0.01406527
Al      11.44632244       3.30738977      16.98749972        3       0.00178148      -0.00075398       0.01494230
Al       4.28952759       5.79072790      16.98494536        3      -0.00069326       0.00108300       0.00523672
Al       7.15996253       5.78735231      16.97806743        3      -0.00053134       0.00077008       0.00538986
Al      10.02550767       5.77715031      17.00124876        3      -0.00009400       0.00063243       0.00676628
Al      12.88416252       5.79291204      16.99916153        3      -0.00023676      -0.00184984       0.01042739
Al       5.72867883       8.27307484      16.99116492        3      -0.00123603       0.00067774       0.00584636
Al       8.58547164       8.26799615      16.99340356        3       0.00023155       0.00073468       0.00588545
Al      11.45704261       8.26781576      17.01699332        3      -0.00091763       0.00078242       0.00502531
Al      14.31082430       8.26842337      17.02084030        3       0.00123700       0.00008388       0.00426127
Al      -0.01829584       1.66889285      19.29165823        2      -0.00147505      -0.00021953      -0.00263230
Al       2.85482808       1.66610140      19.25180437        2      -0.00229581      -0.00115205      -0.00438599
Al       5.73259551       1.66308427      19.22038615        2      -0.00241003      -0.00135187      -0.00631679
Al       8.60016993       1.66941806      19.26384759        2       0.00075084       0.00102408      -0.00529099
Al       1.42512971       4.11087673      19.27010330        2      -0.00290886      -0.00145584      -0.00606583
Al       4.29004099       4.13096567      19.22759344        2       0.00154410       0.00027517      -0.00556098
Al       7.17076210       4.14153356      19.25837736        2       0.00007190       0.00139752      -0.00169290
Al      10.02463417       4.11203262      19.35179942        2      -0.00248653       0.00008157      -0.00018769
Al       2.87202234       6.61885690      19.30810603        2      -0.00075020       0.00216909      -0.00409393
Al       5.73852727       6.62341717      19.25287326        2       0.00140920      -0.00165017      -0.00462453
Al       8.59355749       6.61076688      19.25583465        2      -0.00134849      -0.00143888      -0.00454331
Al      11.45461295       6.61792005      19.30274214        2       0.00089997       0.00264620      -0.00601287
Al       4.31027995       9.12096904      19.28820853        2       0.00019816       0.00089637      -0.00496599
Al       7.16099182       9.10855128      19.29711220        2       0.00000717       0.00003350      -0.00739262
Al      10.00657135       9.11227410      19.28979372        2      -0.00103271       0.00080444      -0.00583188
Al      12.88637362       9.10013127      19.33488287        2       0.00026371       0.00002683      -0.00048538
Al      -0.02854397      -0.01929802      21.73201046        1      -0.00575386      -0.00150700       0.00938183
Al       2.86005471      -0.02889335      21.74794065        1      -0.00249041      -0.00223352       0.01057670
Al       5.71489513       0.03056112      21.69278236        1      -0.00268765       0.00298441       0.00489779
Al       8.55081643       0.05206570      21.70962695        1      -0.00502008       0.00604764       0.00832523
Al       1.40557310       2.52813544      21.74075068        1      -0.00579404       0.00226188       0.01258992
Al       4.30140925       2.50005126      21.55055863        1       0.00066300      -0.00307683      -0.00353230
Al       7.10810638       2.49933766      21.53394372        1      -0.00503901      -0.00211204      -0.01057817
Al       9.92484925       2.55806693      21.82420506        1      -0.00919690       0.00526869       0.00429985
Al       2.90454121       4.96846533      21.62190603        1      -0.00032586       0.00242596       0.00363896
Al       5.75795255       4.94357080      21.57736698        1       0.00525667      -0.00129384      -0.01181060
Al       8.56472048       4.98324249      21.60637786        1      -0.00273625       0.00417589      -0.01573803
Al      11.46682477       5.00866030      21.59820726        1       0.00191340       0.00080053      -0.00853964
Al       4.30755990       7.42440529      21.68757549        1      -0.00199147      -0.00073293       0.00558298
Al       7.14713833       7.40260433      21.67866541        1      -0.00133866      -0.00110048       0.00340702
Al      10.00053127       7.43039706      21.63415471        1      -0.00249261      -0.00240189       0.00435948
Al      12.89346801       7.41657934      21.77504700        1      -0.00086092      -0.00140762       0.01544600
C        5.84212959       3.84036912      24.88485744        0      -0.02880443      -0.00651674       0.02095956
N        6.93735571       3.11458424      24.68038654        0      -0.02685316      -0.01781231      -0.01774565
C        7.98338755       3.98268507      24.65222656        0       0.07718933      -0.00000660       0.01176126
S        9.59121132       3.63040165      24.19685965        0       0.00652592      -0.01241580       0.00084268
N        7.55205688       5.22048496      25.10088721        0       0.01232281       0.00859721       0.01227757
N        6.13312671       5.16862137      25.20583482        0      -0.00200130      -0.00857537      -0.01016469
H        4.81904895       3.48267930      24.83653738        0      -0.01849616      -0.01179228      -0.01153599
H        7.93031352       6.09216829      24.73039868        0       0.04516406       0.01918792      -0.01940746
H        5.68732289       5.86509642      24.58652101        0       0.00021642       0.00913185       0.00494011
