105
Lattice="11.45512985522207 0.0 0.0 5.727564927611035 9.92043345827187 0.0 0.0 0.0 31.691342951089922" Properties=species:S:1:pos:R:3:tags:I:1:forces:R:3 energy=-424.563720703125 free_energy=-424.563720703125 stress="0.0064137945882976055 1.064501702785492e-06 -2.8219074010849e-07 1.064501702785492e-06 0.006463279016315937 1.8686987459659576e-06 -2.8219074010849e-07 1.8686987459659576e-06 0.006623638328164816" pbc="T T F"
Al       1.40419475       0.89323473       9.95064602        6       0.00016512       0.00043593       0.00065210
Al       4.26801641       0.89048485       9.96313207        6       0.00005176       0.00042356       0.00003926
Al       7.13143521       0.89027771       9.96817425        6       0.00028743       0.00040462       0.00018191
Al       9.99425654       0.89295286       9.96207554        6       0.00039773       0.00042117       0.00049589
Al       2.83278542       3.37715621       9.96023338        6       0.00017951       0.00017138       0.00046134
Al       5.69705721       3.37304162       9.95941087        6       0.00015133       0.00042326       0.00026240
Al       8.56188843       3.37312017       9.95993466        6       0.00027677       0.00038704       0.00036470
Al      11.42685846       3.37648770       9.95864473        6       0.00026972       0.00020015       0.00055082
Al       4.26504547       5.85790858       9.97187856        6       0.00023939       0.00027852       0.00038297
Al       7.13162205       5.85533130       9.96766718        6       0.00014753       0.00038905       0.00029033
Al       9.99718069       5.85527820       9.97140981        6       0.00016851       0.00029495       0.00029214
Al      12.85985030       5.85837921       9.98220662        6       0.00018226       0.00018480       0.00014420
Al       5.69926345       8.33586308       9.96593200        6       0.00027964       0.00031217       0.00060956
Al       8.56542626       8.33416198       9.96730180        6       0.00007330       0.00031277       0.00027720
Al      11.42995903       8.33404107       9.98210548        6       0.00015577       0.00011474      -0.00014427
Al      14.29092524       8.33670367       9.98072697        6       0.00036076       0.00012167       0.00031258
Al       0.01335230       1.69595252      12.34766851        5       0.00035502       0.00109880       0.00601563
Al       2.87391986       1.69317121      12.33992908        5      -0.00054098       0.00295691       0.00843453
Al       5.73724092       1.69416852      12.34721620        5       0.00083086       0.00278508       0.00415879
Al       8.60692990       1.69488853      12.35255266        5      -0.00001487       0.00168912       0.00279317
Al       1.44587468       4.17747157      12.36087323        5       0.00002407       0.00095633       0.00152459
Al       4.30780617       4.17935260      12.35364299        5      -0.00054713       0.00071553       0.00107361
Al       7.17394630       4.17900412      12.34596049        5      -0.00032029       0.00090200       0.00312721
Al      10.04003483       4.17928606      12.35492764        5      -0.00007483       0.00019475       0.00047235
Al       2.87919612       6.66300499      12.37303791        5       0.00042724      -0.00112697       0.00089949
Al       5.74116290       6.66642977      12.36028537        5       0.00011209      -0.00085099       0.00064703
Al       8.60547176       6.66529010      12.35607829        5      -0.00081040      -0.00109343       0.00346525
Al      11.46894297       6.66274739      12.37279792        5       0.00035391      -0.00149414       0.00129366
Al       4.31038895       9.14083830      12.36484087        5       0.00098738       0.00081421       0.00477944
Al       7.17137166       9.14261572      12.34866649        5      -0.00046462       0.00026473       0.00843235
Al      10.03216727       9.14053931      12.35027663        5       0.00032231      -0.00007833       0.00999514
Al      12.90145975       9.13919988      12.36980014        5       0.00066250      -0.00001826       0.00346126
Al       0.02424932       0.04094584      14.67258346        4      -0.00053297       0.00002702       0.00097927
Al       2.87385676       0.03825963      14.66334125        4       0.00031124       0.00001602      -0.00011796
Al       5.74036347       0.03170325      14.64979481        4       0.00017053       0.00019769       0.00231599
Al       8.61641614       0.03257276      14.67119116        4       0.00007688       0.00045989       0.00175813
Al       1.44362067       2.50969163      14.65314617        4       0.00029536       0.00051102       0.00168535
Al       4.30655606       2.50913875      14.63771271        4       0.00007591       0.00042903       0.00174317
Al       7.17608266       2.50584405      14.63592609        4       0.00011153       0.00035450       0.00152552
Al      10.04455084       2.51702491      14.64968163        4      -0.00043645      -0.00154755      -0.00003350
Al       2.87984163       4.99525520      14.66011299        4       0.00023350       0.00008012       0.00150240
Al       5.74477782       4.99962703      14.63308702        4      -0.00006003       0.00000157       0.00169256
Al       8.61441863       4.99855887      14.63687832        4      -0.00019218       0.00009797       0.00151747
Al      11.47714248       4.99497636      14.66329419        4      -0.00005832       0.00022579       0.00127588
Al       4.31880590       7.48327757      14.67240916        4       0.00010240       0.00034194       0.00164361
Al       7.18174355       7.48559797      14.65932995        4      -0.00137587      -0.00008303      -0.00021705
Al      10.03407521       7.47557694      14.66782997        4       0.00075905       0.00062345       0.00110221
Al      12.90760371       7.47010542      14.67503110        4       0.00012290       0.00072037       0.00177598
Al       1.41456727       0.85414790      17.00333069        3      -0.00063574      -0.00694435       0.01309904
Al       4.25979222       0.83451033      16.96538783        3       0.00096084      -0.00109518       0.00312382
Al       7.15130844       0.82570082      16.96030920        3      -0.00076278       0.00118048       0.00931022
Al      10.02939034       0.84206108      17.00047054        3       0.00018096       0.00051329       0.00189147
Al       2.84204908       3.29611228      16.96386605        3      -0.00098290       0.00167958       0.00356269
Al       5.71121071       3.30972550      16.93036010        3      -0.00005851       0.00011951       0.00217520
Al       8.58392317       3.31721427      16.92768661        3      -0.00166441      -0.00424438       0.00681650
Al      11.43327518       3.30524941      16.97360386        3       0.00227027       0.00090029       0.00348680
Al       4.28670249       5.79915933      16.96632360        3      -0.00081707       0.00105218       0.00197293
Al       7.14887232       5.81379634      16.93789648        3      -0.00054575       0.00116483       0.00112298
Al      10.01750999       5.79654514      16.96817305        3       0.00120381       0.00292471       0.00228208
Al      12.87739901       5.79752041      16.98376146        3       0.00021502       0.00052216       0.00203466
Al       5.72774700       8.30297031      16.99935027        3       0.00011489       0.00115693       0.00199266
Al       8.57164502       8.29687188      16.98070772        3       0.00272147       0.00404401       0.00454046
Al      11.44297281       8.28054901      16.97661055        3       0.00016713       0.00538634       0.01339755
Al      14.32760760       8.28477310      16.99497268        3      -0.00485527      -0.00003324       0.00473507
Al      -0.06225209       1.67984644      19.40619508        2      -0.00055350       0.00027509      -0.00875741
Al       2.77088237       1.65410531      19.37473304        2      -0.00082691      -0.00297219      -0.01053103
Al       5.63088465       1.63998087      19.23171173        2       0.00171010       0.00596186      -0.00182558
Al       8.55905914       1.67933560      19.27188314        2       0.00039430       0.00495749      -0.00984457
Al       1.35717171       4.12258765      19.27476766        2      -0.00252769       0.00173164      -0.01002042
Al       4.23382795       4.14111422      19.22053109        2      -0.00032126      -0.00228383      -0.00083902
Al       7.11003602       4.16944687      19.17932943        2       0.00128464      -0.00390408      -0.00152856
Al       9.94879047       4.13416417      19.23491279        2      -0.00049570      -0.00264646      -0.01032819
Al       2.80681893       6.63593827      19.31292526        2      -0.00024621       0.00108624      -0.00658953
Al       5.69354306       6.65113925      19.23534870        2      -0.00126221       0.00255631      -0.00764255
Al       8.53772116       6.64963110      19.22765705        2      -0.00020105       0.00011917      -0.00301518
Al      11.42167571       6.65741736      19.29980085        2       0.00063131      -0.00165397      -0.00193195
Al       4.23963235       9.12613671      19.34229806        2      -0.00044647      -0.00051333      -0.00846102
Al       7.12115133       9.14231754      19.37192627        2      -0.00146702      -0.00117873      -0.00608086
Al       9.96533960       9.11219506      19.34255530        2      -0.00062061       0.00635646      -0.01061504
Al      12.83772615       9.11991203      19.32326976        2      -0.00712092      -0.00850863      -0.01051983
Al      -0.27162116      -0.04940396      21.91530885        1      -0.00420540       0.00506794       0.00223870
Al       2.71269266      -0.02039748      22.13848144        1      -0.00097057       0.00802575       0.00116055
Al       5.58206831       0.11448542      21.71424055        1      -0.00059006       0.00232676       0.00106457
Al       8.36637449       0.08433214      21.61247970        1       0.00845065      -0.00597263       0.00302349
Al       1.21803241       2.62094074      21.89858278        1      -0.00036285       0.00041476       0.00140605
Al       4.13555852       2.52332322      21.58002249        1       0.00566709       0.00003235       0.00226490
Al       6.99843652       2.56205298      21.47740583        1      -0.00475842      -0.00442199      -0.00810935
Al       9.76686315       2.59054164      21.90220040        1      -0.00402307       0.00015077       0.00419292
Al       2.74064569       4.99344543      21.62148930        1       0.00071616       0.00017366       0.00139269
Al       5.63391693       4.99543362      21.50711013        1       0.00047893       0.00059770      -0.01299051
Al       8.41586433       5.03304321      21.54810922        1      -0.00247411       0.00239402      -0.01006031
Al      11.24672760       4.99969990      21.56046162        1      -0.00514355       0.00005743       0.00199845
Al       4.14178361       7.42018307      21.68400590        1       0.00000458      -0.00255665       0.00156502
Al       6.97873381       7.47588703      21.68132640        1       0.00057545      -0.00407844       0.00051853
Al       9.84123703       7.44544064      21.59778749        1      -0.00104421      -0.00570037       0.00305002
Al      12.68938791       7.41993719      22.09784304        1       0.00490618       0.00321687       0.00473051
C        6.10615573       3.86514365      24.73525338        0      -0.00021055       0.02756232       0.01347316
N        6.97448127       2.92032554      24.39743682        0       0.00022027      -0.02719459      -0.00886679
C        8.21365816       3.37942169      24.73599520        0       0.04097090      -0.02282581      -0.01259373
S        9.71057219       2.66043128      24.34029900        0       0.00451713      -0.01034282      -0.00061638
N        8.08883808       4.60070953      25.32523796        0       0.02122900       0.02760625      -0.02195847
N        6.73191021       4.95188727      25.35316189        0      -0.01943729       0.01472218      -0.01256473
H        5.04616055       3.86792881      24.49799525        0      -0.01047615       0.00141108      -0.00089041
H        8.81083760       5.19175685      25.72268095        0      -0.02684110      -0.03534357      -0.00369547
H        6.55835477       5.86551346      24.90753713        0       0.00306915       0.00192273      -0.00264016
