105
Lattice="11.45512985522207 0.0 0.0 5.727564927611035 9.92043345827187 0.0 0.0 0.0 31.691342951089922" Properties=species:S:1:pos:R:3:tags:I:1:forces:R:3 energy=-424.4036865234375 free_energy=-424.4036865234375 stress="0.005452437326312065 8.172355592250824e-07 -2.6635825634002686e-07 8.172355592250824e-07 0.005514634773135185 1.8994323909282684e-06 -2.6635825634002686e-07 1.8994323909282684e-06 0.005690630059689283" pbc="T T F"
Al       1.40954532       0.85769125      10.01162549        6       0.00069063       0.00077918      -0.00176296
Al       4.27450648       0.85668596      10.01842132        6       0.00067461       0.00073710      -0.00194803
Al       7.13764445       0.85659276      10.01938423        6       0.00062181       0.00073997      -0.00173519
Al      10.00017236       0.85760605      10.01597485        6       0.00068531       0.00076602      -0.00181038
Al       2.84085818       3.33949579      10.01672481        6       0.00064375       0.00067886      -0.00188929
Al       5.70578145       3.33823530      10.01907184        6       0.00063265       0.00063898      -0.00176402
Al       8.56943696       3.33853618      10.02139370        6       0.00052678       0.00061718      -0.00211062
Al      11.43230293       3.34038213      10.01847982        6       0.00066339       0.00063787      -0.00188057
Al       4.27282529       5.82013643      10.02178863        6       0.00063720       0.00049358      -0.00201407
Al       7.13865533       5.81893391      10.02476020        6       0.00056386       0.00050379      -0.00236522
Al      10.00234533       5.81984469      10.02796472        6       0.00057072       0.00046872      -0.00229505
Al      12.86464923       5.82032766      10.02738853        6       0.00067018       0.00058599      -0.00201245
Al       5.70506515       8.29778491      10.01525824        6       0.00068396       0.00063097      -0.00236067
Al       8.57084914       8.29712873      10.02041842        6       0.00057910       0.00056665      -0.00252212
Al      11.43382914       8.29744693      10.02509579        6       0.00067275       0.00056949      -0.00238635
Al      14.29601348       8.29851988      10.02001643        6       0.00065784       0.00063857      -0.00193467
Al       0.00276909       1.67064986      12.38384865        5       0.00117378       0.00040179      -0.00391082
Al       2.86600170       1.67125956      12.37947793        5       0.00005042       0.00047684      -0.00230336
Al       5.73140952       1.67112238      12.38623707        5       0.00025672      -0.00104711      -0.00494400
Al       8.59698235       1.67068830      12.38798320        5       0.00032898      -0.00114423      -0.00488697
Al       1.43538142       4.14762928      12.38872183        5       0.00030591       0.00275363      -0.00428985
Al       4.29794051       4.14745567      12.38460669        5      -0.00053136       0.00328432      -0.00484243
Al       7.16421721       4.14818584      12.38695152        5       0.00021200       0.00175813      -0.00418107
Al      10.02859844       4.14796249      12.39141503        5       0.00121604       0.00221474      -0.00627558
Al       2.86782375       6.62758980      12.39328653        5      -0.00050792       0.00378002      -0.00452296
Al       5.73117669       6.62817298      12.38403182        5      -0.00076893       0.00372424      -0.00354756
Al       8.59591155       6.62759631      12.39073430        5       0.00091456       0.00370318      -0.00425063
Al      11.46001725       6.62771984      12.39706457        5       0.00140285       0.00312986      -0.00409618
Al       4.29966987       9.10955144      12.38232937        5       0.00010311       0.00196063      -0.00192735
Al       7.16053199       9.10803192      12.37620972        5       0.00059360       0.00250205      -0.00118279
Al      10.02580777       9.10604203      12.38360645        5       0.00191196       0.00229244      -0.00037811
Al      12.89200041       9.10827850      12.38893237        5       0.00129068       0.00140903      -0.00222391
Al       0.00047111       0.01484128      14.66303341        4       0.00134732       0.00070461       0.00178675
Al       2.86141785       0.01098718      14.64912297        4       0.00187198       0.00137743       0.00413101
Al       5.73485486       0.00606130      14.66248228        4       0.00077713       0.00221932       0.00481581
Al       8.60111172       0.00683362      14.67007534        4       0.00063604       0.00157795       0.00477193
Al       1.42612050       2.49484497      14.66922471        4       0.00257580      -0.00007867       0.00052005
Al       4.29293695       2.49373720      14.66363096        4       0.00105404       0.00004960       0.00013859
Al       7.17015280       2.48805644      14.66526663        4      -0.00057917      -0.00049693      -0.00009106
Al      10.02875226       2.49402388      14.67537964        4       0.00162711      -0.00194759      -0.00242054
Al       2.86043851       4.97950334      14.67079719        4       0.00224329      -0.00016475       0.00160372
Al       5.72584884       4.98035075      14.65587876        4       0.00093193      -0.00028802       0.00152230
Al       8.60376574       4.97672533      14.66672797        4       0.00067126       0.00039464      -0.00028961
Al      11.46390923       4.97652414      14.67475121        4       0.00135056       0.00014448       0.00119912
Al       4.29582404       7.46295394      14.66887005        4       0.00171811      -0.00002989       0.00379465
Al       7.16078727       7.46036607      14.66398766        4       0.00097664       0.00113413       0.00056656
Al      10.03446923       7.45140517      14.68080573        4       0.00074922       0.00106399       0.00073535
Al      12.89250001       7.45843715      14.68554041        4       0.00126806       0.00078890       0.00111508
Al       1.41474226       0.83369900      16.97871422        3       0.00084495       0.00083433       0.00106403
Al       4.27018205       0.81958032      16.95739845        3       0.00093114       0.00074090       0.00110879
Al       7.16475332       0.81550943      16.98096663        3       0.00057578       0.00028951       0.00131730
Al      10.03314555       0.82518875      16.99797807        3       0.00079151       0.00083273       0.00101456
Al       2.85168849       3.30694238      16.97081175        3      -0.00010725      -0.00097303       0.00110251
Al       5.71904724       3.30140123      16.94286205        3       0.00006290      -0.00003447       0.00119321
Al       8.59675108       3.29899625      16.94889909        3       0.00063209       0.00032074       0.00169670
Al      11.44481591       3.29712484      16.98264583        3       0.00212016       0.00032946       0.00177091
Al       4.28094443       5.81048643      16.97253836        3       0.00167380      -0.00088259       0.00163965
Al       7.15959674       5.80429100      16.93043169        3       0.00045061       0.00076569       0.00249182
Al      10.04232677       5.77768343      16.97545999        3      -0.00028545       0.00345421       0.00158051
Al      12.89290864       5.79484801      16.99416860        3       0.00063563       0.00099658       0.00106165
Al       5.72267590       8.29350137      16.98726147        3       0.00113047       0.00048117       0.00078484
Al       8.58970385       8.29053871      16.96344230        3       0.00082945       0.00085494       0.00106524
Al      11.46581189       8.28415052      16.99020648        3       0.00071512       0.00037917       0.00449037
Al      14.32417812       8.27951573      17.01012467        3      -0.00067487       0.00101003       0.00255098
Al      -0.01052804       1.64832739      19.36667947        2      -0.00091370       0.00098726      -0.00023470
Al       2.80441241       1.62697968      19.29455521        2       0.00303569       0.00013348       0.00582461
Al       5.66019168       1.61296815      19.21156412        2       0.00242335       0.00547383      -0.00036520
Al       8.60285815       1.64806556      19.25258600        2      -0.00163147       0.00338002      -0.00068139
Al       1.40852800       4.09356037      19.25364698        2      -0.00033509       0.00245558      -0.00108659
Al       4.26889522       4.12405081      19.21784643        2       0.00025571      -0.00277707      -0.00186035
Al       7.14940322       4.13609550      19.16832583        2      -0.00299276       0.00592538       0.00453988
Al       9.99510522       4.10001470      19.25621243        2      -0.00048944       0.00135734      -0.00761274
Al       2.84027030       6.63717712      19.32615773        2      -0.00011493      -0.00585916      -0.00301154
Al       5.73168822       6.64326620      19.22630983        2      -0.00151427      -0.00371593      -0.00171084
Al       8.58240152       6.65411269      19.20001616        2      -0.00010263      -0.00365142      -0.00236747
Al      11.46305865       6.64893231      19.28050153        2      -0.00179361      -0.00411288      -0.00142267
Al       4.29512970       9.11326549      19.33982511        2      -0.00014675       0.00250761      -0.00284433
Al       7.15955796       9.11687127      19.30388547        2      -0.00019460       0.00130722       0.00384913
Al      10.01669969       9.09687285      19.29937341        2      -0.00123340       0.00146780       0.00345310
Al      12.88920333       9.09994364      19.41076978        2      -0.00251465      -0.00238907      -0.00261243
Al      -0.20049594      -0.05315937      21.93911356        1      -0.00841830       0.00182823       0.00568166
Al       2.79823866      -0.07695465      21.99306201        1      -0.00063880       0.00315069       0.00837520
Al       5.65071365       0.07961813      21.75767580        1       0.00135306       0.00027327      -0.00219531
Al       8.44181383       0.14328362      21.75935591        1      -0.00177919      -0.00798629      -0.01015959
Al       1.23952994       2.58038379      21.95671962        1       0.00601921      -0.00017351      -0.00708853
Al       4.18443258       2.46290886      21.55589031        1       0.00342206       0.00192739      -0.00268244
Al       7.02562437       2.53014710      21.42943446        1      -0.00250686      -0.00006287       0.00202543
Al       9.79839315       2.60431660      21.88061285        1       0.00195821       0.00710418       0.00450213
Al       2.85204861       4.93268214      21.58056744        1      -0.00245570       0.00391176       0.00514976
Al       5.70021246       4.96391220      21.51587768        1       0.00019128       0.00269009      -0.00893511
Al       8.50284030       5.05166430      21.45278862        1       0.00117437      -0.00198638      -0.00291193
Al      11.41989405       4.99964905      21.49850434        1      -0.01017628       0.00488136       0.01102852
Al       4.23465980       7.42589533      21.64282499        1      -0.00174908      -0.00373952       0.00144201
Al       7.09818896       7.42323802      21.61402108        1      -0.00150935      -0.00083209       0.00268620
Al      10.00825867       7.43648129      21.59791614        1      -0.00988394       0.00075872       0.01149862
Al      12.84196225       7.36916650      22.14312891        1      -0.00575690       0.00672911      -0.01758429
C        5.97132169       3.88509344      24.76579320        0      -0.00925345      -0.05600193      -0.02645590
N        6.97285878       3.06849526      24.44407722        0      -0.02983446      -0.02344639      -0.00575114
C        8.12380369       3.75944627      24.63040892        0       0.01182511       0.02240885       0.03444329
S        9.69714638       3.24249561      24.25609769        0       0.01796249      -0.02149083       0.00736105
N        7.83821737       4.99917829      25.21141333        0       0.02675657      -0.00055506       0.00471769
N        6.41819112       5.08435647      25.27491198        0       0.06356716       0.02027975       0.02876742
H        4.91767350       3.68161689      24.61498808        0      -0.05778544      -0.04497164      -0.00554710
H        8.32147386       5.82124638      24.83561438        0      -0.01482113      -0.01206883       0.03633985
H        6.03355009       5.94276960      24.86878199        0      -0.01706853       0.03777732      -0.02584723
