105
Lattice="11.45512985522207 0.0 0.0 5.727564927611035 9.92043345827187 0.0 0.0 0.0 31.691342951089922" Properties=species:S:1:pos:R:3:tags:I:1:forces:R:3 energy=-424.2775573730469 free_energy=-424.2775573730469 stress="0.0060745165683329105 1.4146789908409119e-06 -2.2631138563156128e-07 1.4146789908409119e-06 0.006124827079474926 1.373235136270523e-06 -2.2631138563156128e-07 1.373235136270523e-06 0.006230332888662815" pbc="T T F"
Al       1.41176236       0.89300589       9.97985168        6       0.00069201       0.00012648       0.00057826
Al       4.27578743       0.89127444       9.98574938        6       0.00066671       0.00027472       0.00117761
Al       7.13986197       0.89076316       9.99070807        6       0.00046261       0.00027073       0.00104273
Al      10.00401909       0.89237392       9.98688143        6       0.00043757       0.00012078       0.00044418
Al       2.84147500       3.37345011       9.98594200        6       0.00063984       0.00042959       0.00128511
Al       5.70488787       3.37250711       9.98461616        6       0.00050017       0.00030837       0.00131717
Al       8.57034179       3.37202315       9.98452017        6       0.00048694       0.00032365       0.00095620
Al      11.43525735       3.37356154       9.98602453        6       0.00059050       0.00039084       0.00081750
Al       4.27384975       5.85306478       9.99353529        6       0.00055939       0.00027252       0.00140421
Al       7.13884328       5.85176140       9.98829689        6       0.00050185       0.00024308       0.00115119
Al      10.00411723       5.85214414       9.99379603        6       0.00060194       0.00034004       0.00101564
Al      12.86748302       5.85340758      10.00125733        6       0.00058957       0.00038804       0.00137020
Al       5.70774094       8.33196631       9.98732963        6       0.00049048       0.00023093       0.00118143
Al       8.57215104       8.33076310       9.98802290        6       0.00066705       0.00039803       0.00114803
Al      11.43710953       8.33008695       9.99851352        6       0.00062091       0.00044237       0.00152004
Al      14.30000708       8.33192609       9.99954773        6       0.00048441       0.00028884       0.00142615
Al       0.01823996       1.69868912      12.36766730        5       0.00013963       0.00135813       0.00278758
Al       2.87813176       1.69772214      12.37339863        5       0.00100031       0.00270720       0.00216538
Al       5.73756265       1.69562821      12.38061695        5       0.00083496       0.00183095      -0.00070781
Al       8.60403480       1.69553343      12.37243588        5      -0.00022262       0.00098536       0.00356269
Al       1.44887596       4.18318315      12.38842572        5       0.00050941       0.00072522       0.00075902
Al       4.30783780       4.18330117      12.38197771        5       0.00045098      -0.00075343      -0.00058134
Al       7.17386406       4.18009176      12.37477417        5      -0.00031057       0.00071881       0.00264292
Al      10.04157803       4.18295528      12.37785644        5       0.00087085       0.00074851       0.00181781
Al       2.87736095       6.66646654      12.40095280        5       0.00029611      -0.00353277      -0.00311369
Al       5.74206417       6.66715364      12.38504269        5      -0.00079785      -0.00365157      -0.00334162
Al       8.60973735       6.66903965      12.38486385        5       0.00060966      -0.00275162      -0.00341233
Al      11.47356958       6.66867591      12.39881635        5       0.00039903      -0.00374876      -0.00099652
Al       4.30690204       9.14179069      12.38934145        5       0.00070662      -0.00176506      -0.00286835
Al       7.17794670       9.14577340      12.37918397        5      -0.00047811      -0.00256123      -0.00279587
Al      10.04126021       9.14653948      12.39547875        5      -0.00043548      -0.00304106      -0.00321330
Al      12.89980672       9.14308220      12.40561752        5       0.00048236      -0.00169903      -0.00563726
Al       0.01397492       0.03401795      14.66635853        4       0.00179163       0.00102770       0.00430477
Al       2.88242256       0.04209969      14.69085872        4      -0.00505594      -0.00249352      -0.00764887
Al       5.74714198       0.03628561      14.71447636        4      -0.00584004      -0.00509004      -0.01652866
Al       8.60707921       0.03314540      14.70616669        4       0.00013814      -0.00071989      -0.00384703
Al       1.45155125       2.51271583      14.67308387        4      -0.00131270      -0.00031265       0.00110303
Al       4.30594179       2.51038067      14.67841156        4      -0.00275255      -0.00187704      -0.00683934
Al       7.16961143       2.50205732      14.66814131        4       0.00119792       0.00072112       0.00061009
Al      10.04392622       2.50012024      14.65588786        4       0.00074102       0.00148911       0.00261663
Al       2.88422116       4.99447216      14.69944095        4      -0.00380071       0.00009599      -0.00411353
Al       5.73859923       4.99370253      14.67638963        4       0.00143206       0.00098067      -0.00481050
Al       8.61335918       4.99751116      14.66481280        4       0.00061577       0.00049700       0.00163868
Al      11.47817787       4.99556918      14.69494243        4       0.00000525       0.00023507      -0.00045769
Al       4.31045404       7.47772075      14.69665069        4       0.00043216       0.00014586       0.00121767
Al       7.17629389       7.48449978      14.67076180        4       0.00040269       0.00005914       0.00138283
Al      10.04933877       7.48202353      14.69616038        4      -0.00098715      -0.00088281      -0.00032737
Al      12.90846901       7.48145897      14.70994059        4      -0.00044312      -0.00071743       0.00099632
Al       1.41092695       0.84251536      17.00765930        3      -0.00528751      -0.00375468       0.00095047
Al       4.26744157       0.82970942      17.00193557        3      -0.00489473      -0.00534587      -0.00103919
Al       7.14069378       0.81806351      17.01445638        3       0.00154408       0.00211990       0.00079863
Al      10.01621498       0.83799009      16.99933040        3       0.00272237       0.00225614       0.00193054
Al       2.83012155       3.30324011      16.98843303        3       0.00028344       0.00062043       0.00246412
Al       5.69471266       3.31185316      16.95070661        3       0.00256242      -0.00394011       0.00276183
Al       8.58728241       3.32278387      16.93571050        3       0.00007170      -0.00233552       0.00394317
Al      11.44545724       3.31214122      16.98382429        3       0.00055562       0.00036378       0.00260183
Al       4.28162696       5.80662747      17.00112117        3      -0.00433732      -0.00058227      -0.00405778
Al       7.14941802       5.82011623      16.95607079        3      -0.00016639       0.00036594       0.00109148
Al      10.02495171       5.80842733      16.99303519        3       0.00064562       0.00092917       0.00177363
Al      12.87886211       5.81669693      17.01797257        3       0.00005321      -0.00119405       0.00318555
Al       5.71439698       8.29649319      16.99332163        3       0.00240956       0.00326196       0.00304767
Al       8.57219153       8.29908429      16.97606849        3       0.00386667       0.00523064       0.01019711
Al      11.44012397       8.28136734      17.02994209        3       0.00047479       0.00055223       0.00270409
Al      14.30791900       8.28173029      17.03115121        3      -0.00051936      -0.00022158       0.00214623
Al      -0.05954818       1.66866673      19.37537193        2      -0.00005031       0.00058260       0.00471825
Al       2.77197896       1.62489898      19.30965211        2      -0.00138939       0.00148751       0.01579780
Al       5.63060787       1.63079589      19.24005263        2       0.00044088       0.00128721       0.00410226
Al       8.57163955       1.69562369      19.24442508        2      -0.00144272      -0.00097672       0.00713802
Al       1.36229046       4.13506566      19.29247344        2      -0.00012640      -0.00193793      -0.00162549
Al       4.22073747       4.12100004      19.22593650        2       0.00160482       0.00092578       0.00362511
Al       7.10466120       4.14028603      19.16193840        2       0.00166072       0.00277759       0.00918112
Al       9.97964528       4.12469647      19.23305830        2      -0.00395931       0.00046894      -0.00054644
Al       2.81430519       6.61766932      19.35142605        2      -0.00217524       0.00464942      -0.00508633
Al       5.68010995       6.66961965      19.24699019        2       0.00214073      -0.00043023      -0.00241465
Al       8.54525221       6.68441632      19.22019057        2      -0.00069585      -0.00994140       0.00840442
Al      11.41060186       6.64695501      19.35229368        2       0.00217662      -0.00406667       0.00268169
Al       4.25168166       9.13071460      19.29612933        2      -0.00037053      -0.00154076       0.01630037
Al       7.11903961       9.12748474      19.34945703        2      -0.00125021       0.00161906       0.00451208
Al       9.95446421       9.09017328      19.36712867        2      -0.00084759       0.00824666      -0.00478052
Al      12.81912361       9.08040630      19.38150794        2      -0.00218616      -0.00120963      -0.01503411
Al      -0.36287085      -0.05557191      21.97219346        1       0.00489190      -0.00565856      -0.00171278
Al       2.70461765       0.00662615      22.19651782        1       0.00306226      -0.00526109      -0.00411131
Al       5.59558469       0.07621096      21.72272847        1      -0.00205387      -0.00240382      -0.00546379
Al       8.38900333       0.08705914      21.59481618        1       0.00153514      -0.00246248       0.00990959
Al       1.21138979       2.60057067      21.87639799        1       0.00058681       0.00078797       0.00276965
Al       4.15707624       2.49913823      21.53783974        1      -0.00200900      -0.00351701       0.01070848
Al       6.99849994       2.51525093      21.46671787        1      -0.00244545       0.00373829      -0.00775886
Al       9.77914742       2.58856878      21.90449400        1      -0.00005675      -0.00639108       0.01665594
Al       2.74532433       4.96848582      21.65600587        1       0.00216119       0.00143519      -0.00084858
Al       5.62656909       4.97387505      21.44588854        1       0.00248406      -0.00017477       0.00553819
Al       8.43080384       4.99794451      21.43703731        1      -0.00014750       0.00179733       0.00332388
Al      11.25410554       4.99591396      21.59503213        1       0.00163031      -0.00095913       0.00299032
Al       4.14193143       7.41611380      21.70668387        1      -0.00058894      -0.00350527      -0.00078164
Al       7.02400793       7.44121807      21.66009344        1       0.00076595       0.00170842       0.00032885
Al       9.83244655       7.38476296      21.69128109        1       0.00800074       0.01751427      -0.00301402
Al      12.72577418       7.42561580      22.09001942        1      -0.00480642      -0.00187637      -0.00486598
C        6.09975120       3.89855173      24.60168215        0       0.00433978      -0.00298553      -0.00787028
N        6.95977197       2.89904079      24.41316026        0       0.00272259       0.01641170       0.00620703
C        8.20568796       3.40918519      24.62223515        0      -0.00344244       0.00290746      -0.00553297
S        9.70032097       2.63927804      24.37281861        0       0.00288648      -0.01067452      -0.01886760
N        8.10692621       4.75455191      24.90014916        0       0.04932559       0.02959442       0.01000130
N        6.73232400       5.06109741      25.02971184        0      -0.00493323       0.00007166      -0.00962694
H        5.02770708       3.84866057      24.43084739        0       0.00628633       0.01149718      -0.00076371
H        8.78292829       5.25373372      25.47681986        0      -0.05175551      -0.03647953      -0.03561609
H        6.47301070       5.92010448      24.52300530        0      -0.01156731       0.01104240      -0.01727051
