105
Lattice="11.45512985522207 0.0 0.0 5.727564927611035 9.92043345827187 0.0 0.0 0.0 31.691342951089922" Properties=species:S:1:pos:R:3:tags:I:1:forces:R:3 energy=-424.44195556640625 free_energy=-424.44195556640625 stress="0.005269753746688366 5.08967787027359e-07 -2.514570951461792e-07 5.08967787027359e-07 0.005334002897143364 1.9385479390621185e-06 -2.514570951461792e-07 1.9385479390621185e-06 0.005536189768463373" pbc="T T F"
Al       1.41786800       0.84480385      10.01713795        6      -0.00084191       0.00096263      -0.00404854
Al       4.28240221       0.84428450      10.02104916        6      -0.00087631       0.00096789      -0.00414211
Al       7.14573577       0.84415412      10.02109431        6      -0.00076682       0.00097791      -0.00391742
Al      10.00875956       0.84475046      10.01930976        6      -0.00075039       0.00096785      -0.00390622
Al       2.84953340       3.32617052      10.01961788        6      -0.00086744       0.00078637      -0.00400162
Al       5.71391217       3.32544385      10.02037156        6      -0.00082686       0.00079255      -0.00379644
Al       8.57776761       3.32559655      10.02206002        6      -0.00085995       0.00079404      -0.00393527
Al      11.44094036       3.32654598      10.02034854        6      -0.00083681       0.00081178      -0.00381015
Al       4.28132504       5.80665429      10.02226731        6      -0.00078501       0.00082114      -0.00388692
Al       7.14625255       5.80602070      10.02395235        6      -0.00076049       0.00080113      -0.00384775
Al      10.01019327       5.80655566      10.02572375        6      -0.00082015       0.00077918      -0.00389657
Al      12.87294449       5.80676805      10.02541697        6      -0.00078139       0.00080098      -0.00388779
Al       5.71329698       8.28529907      10.02028963        6      -0.00073261       0.00098153      -0.00440649
Al       8.57845687       8.28514943      10.02283356        6      -0.00081162       0.00084405      -0.00421845
Al      11.44176513       8.28523899      10.02523509        6      -0.00079324       0.00080802      -0.00405156
Al      14.30446084       8.28563325      10.02237569        6      -0.00068506       0.00092559      -0.00411368
Al       0.00327741       1.66128470      12.38122806        5       0.00046319       0.00123459       0.00620423
Al       2.86827008       1.66083022      12.37719098        5      -0.00044824       0.00139729       0.00676155
Al       5.73513901       1.65987522      12.38228433        5      -0.00070776       0.00179499       0.00731609
Al       8.59887671       1.66044976      12.38531135        5      -0.00052598       0.00172966       0.00691713
Al       1.43581905       4.14391837      12.38431641        5       0.00026818      -0.00042855       0.00855076
Al       4.29985264       4.14214696      12.38191026        5       0.00004936       0.00040034       0.00739584
Al       7.16729082       4.14227570      12.38335036        5      -0.00064757       0.00033520       0.00796862
Al      10.03067356       4.14357028      12.38930121        5      -0.00025927      -0.00015800       0.00776529
Al       2.86873729       6.62160444      12.38625611        5      -0.00001362       0.00099442       0.00997835
Al       5.73303467       6.62140119      12.38182937        5      -0.00014777       0.00113394       0.00852646
Al       8.59973798       6.62046005      12.38639336        5      -0.00062372       0.00143698       0.00867459
Al      11.46143049       6.62054027      12.39000471        5      -0.00016861       0.00139617       0.00996292
Al       4.29942844       9.09897084      12.37759071        5       0.00068648       0.00207436       0.01001194
Al       7.16393729       9.09820986      12.37427347        5      -0.00031342       0.00225916       0.00892947
Al      10.02955258       9.09629220      12.37774033        5      -0.00067675       0.00219805       0.01037269
Al      12.89271836       9.09738318      12.38135875        5       0.00013987       0.00222857       0.01059827
Al       0.00190502       0.00785008      14.67572833        4      -0.00066121       0.00088959      -0.00168502
Al       2.86139458       0.00432289      14.66563398        4      -0.00035691       0.00103545      -0.00154505
Al       5.73344374      -0.00083956      14.67343053        4      -0.00054651       0.00122837      -0.00151753
Al       8.59795004       0.00086624      14.67952959        4      -0.00062231       0.00112705      -0.00158403
Al       1.42673620       2.48637298      14.67893686        4      -0.00016626       0.00114083      -0.00268989
Al       4.29514451       2.48625735      14.67003074        4      -0.00057841       0.00068527      -0.00224483
Al       7.16893506       2.48408482      14.67669964        4      -0.00074592       0.00060805      -0.00247325
Al      10.02814927       2.48986871      14.68353878        4      -0.00048167       0.00046380      -0.00236531
Al       2.86081198       4.97428069      14.67797070        4      -0.00042723       0.00044707      -0.00210749
Al       5.72795006       4.97336868      14.67148741        4      -0.00069084       0.00025419      -0.00430172
Al       8.60043532       4.97102386      14.68101836        4      -0.00040408       0.00031455      -0.00395189
Al      11.45992689       4.97124783      14.68560022        4      -0.00040658       0.00074873      -0.00175500
Al       4.29457496       7.45442193      14.68422064        4      -0.00027880       0.00080657      -0.00275281
Al       7.16168731       7.45173266      14.67805625        4      -0.00055791       0.00107007      -0.00240680
Al      10.03102121       7.44754358      14.69777051        4      -0.00083681       0.00026891      -0.00589977
Al      12.88997168       7.45184926      14.69874488        4      -0.00032341       0.00048094      -0.00306679
Al       1.41644417       0.84169161      16.98639389        3       0.00046401      -0.00901383      -0.00054610
Al       4.28208019       0.81793810      16.97335131        3      -0.00132140      -0.00017977      -0.00528643
Al       7.16769284       0.81557538      16.98926690        3      -0.00132509      -0.00116170      -0.00259496
Al      10.02539205       0.83009122      17.00067734        3       0.00150583      -0.00303658      -0.00521084
Al       2.85001898       3.30804316      16.97822681        3       0.00172100      -0.00104730      -0.00680774
Al       5.72929516       3.30731063      16.95703731        3      -0.00330678      -0.00185729      -0.00267277
Al       8.59840588       3.30821356      16.98821197        3       0.00061650      -0.00323547      -0.01183151
Al      11.44368014       3.30715231      17.00750319        3       0.00060274      -0.00377145      -0.01264985
Al       4.28422364       5.80111343      16.97996645        3      -0.00044664       0.00043488      -0.00137560
Al       7.16096909       5.79172002      16.95850610        3      -0.00085581       0.00148587      -0.00111920
Al      10.03304843       5.77428850      17.00368863        3      -0.00046658       0.00140661      -0.00456544
Al      12.88391341       5.79066121      17.01345977        3       0.00256654       0.00199842      -0.00972027
Al       5.72066216       8.27909699      16.99830438        3       0.00219102       0.00277852      -0.00528097
Al       8.59284998       8.27389387      16.98699842        3      -0.00406795       0.00318218      -0.00476699
Al      11.45582630       8.27043906      17.00853809        3       0.00231668       0.00285734      -0.00221679
Al      14.32316270       8.26966155      17.01444032        3      -0.00147624       0.00123254      -0.00107048
Al      -0.01697538       1.66009236      19.31827590        2       0.00042376      -0.00059222       0.00144272
Al       2.82863586       1.64915734      19.26403903        2      -0.00108175      -0.00147279       0.00034552
Al       5.69593999       1.63388862      19.20878691        2      -0.00025368       0.00195739      -0.00220125
Al       8.60599763       1.65898795      19.24687850        2      -0.00152170       0.00055454      -0.00118240
Al       1.41358411       4.09990448      19.25472241        2       0.00079537      -0.00017198       0.00109284
Al       4.28707145       4.13201437      19.22539462        2      -0.00252126      -0.00123836      -0.00582880
Al       7.16678876       4.13781873      19.20815876        2      -0.00464232       0.00319910       0.00332429
Al      10.00657625       4.10352521      19.32109800        2      -0.00064880       0.00144145      -0.00761164
Al       2.86324218       6.63484158      19.32135310        2      -0.00365964      -0.00136867      -0.00429136
Al       5.74075427       6.62959232      19.24255330        2      -0.00205519       0.00080127      -0.00383754
Al       8.58664205       6.62495213      19.22557739        2       0.00016242       0.00292099      -0.00229659
Al      11.46242833       6.64478512      19.27645310        2      -0.00146428      -0.00396862       0.00625720
Al       4.30263519       9.11745628      19.31508281        2       0.00007854       0.00063388      -0.00303224
Al       7.16121554       9.11054475      19.28931773        2      -0.00078311       0.00150730       0.00102755
Al      10.00984114       9.10888953      19.27892498        2       0.00126286      -0.00217207       0.00893008
Al      12.89211272       9.10475103      19.37179204        2      -0.00191563      -0.00191446      -0.00149347
Al      -0.09845287      -0.03948025      21.82893753        1      -0.00940234      -0.00022680       0.00507787
Al       2.83384930      -0.05663594      21.86107720        1      -0.00335652       0.00010132       0.00642117
Al       5.68276566       0.05959079      21.73163797        1      -0.00155874      -0.00246501      -0.00294704
Al       8.49636866       0.11441078      21.76163167        1      -0.00196180      -0.00552463      -0.01228823
Al       1.32897330       2.55648060      21.86017348        1      -0.00732504       0.00104633      -0.00216311
Al       4.25775151       2.47891913      21.52163863        1      -0.01391913       0.00130912       0.01817520
Al       7.05859821       2.49245851      21.45419795        1       0.00330100       0.01195603       0.00669326
Al       9.84787770       2.58071502      21.86285175        1       0.00329869       0.00032424      -0.00437999
Al       2.89484446       4.95288380      21.58667542        1      -0.00848994      -0.00245834       0.00421936
Al       5.72495524       4.95730640      21.49358423        1       0.00265367      -0.00349793       0.02660466
Al       8.54166868       5.03932956      21.51315398        1      -0.00253800      -0.01153225      -0.00070576
Al      11.46993136       4.99999547      21.52551595        1      -0.01108754       0.00290850       0.00148088
Al       4.28167124       7.42557127      21.67492698        1      -0.00561058       0.00038159      -0.00504650
Al       7.12682844       7.40630717      21.65385976        1      -0.00255521       0.00286233      -0.00507160
Al       9.99993626       7.42464212      21.61603184        1       0.00187941       0.00287117      -0.00396447
Al      12.87934998       7.38942735      21.95137929        1      -0.00521699      -0.00070643       0.01368740
C        5.88224677       3.86911294      24.83395636        0       0.04931078      -0.09272737       0.01827574
N        6.93034670       3.08918764      24.57410441        0       0.00106424      -0.03438810      -0.04359945
C        8.03862181       3.87092583      24.65015703        0       0.00617947      -0.04689099      -0.00428793
S        9.62498243       3.48730201      24.15459242        0       0.02801701      -0.03666447       0.01330825
N        7.69305000       5.11138701      25.14895839        0       0.00618155       0.08455062       0.03494789
N        6.28045034       5.13063369      25.25991906        0      -0.11555453       0.12672678      -0.03922611
H        4.83791953       3.56387854      24.79951707        0       0.08320459       0.04202666      -0.03092002
H        8.12096607       5.96867574      24.78860776        0       0.02867615      -0.06291196       0.01345913
H        5.86169854       5.91719461      24.73865278        0       0.01772584      -0.01466222       0.04959714
