105
Lattice="11.45512985522207 0.0 0.0 5.727564927611035 9.92043345827187 0.0 0.0 0.0 31.691342951089922" Properties=species:S:1:pos:R:3:tags:I:1:forces:R:3 energy=-424.44134521484375 free_energy=-424.44134521484375 stress="0.005737788509577513 1.453794538974762e-06 -3.0081719160079956e-07 1.453794538974762e-06 0.005786025896668434 1.7043203115463257e-06 -3.0081719160079956e-07 1.7043203115463257e-06 0.005922418087720871" pbc="T T F"
Al       1.42680999       0.83283997      10.00147361        6      -0.00079479       0.00052309       0.00224079
Al       4.29062602       0.83281879      10.00158771        6      -0.00077370       0.00051377       0.00235359
Al       7.15439681       0.83281265      10.00160518        6      -0.00078696       0.00049380       0.00234468
Al      10.01816752       0.83286056      10.00162746        6      -0.00082568       0.00051713       0.00231955
Al       2.85866053       3.31302551      10.00148791        6      -0.00079922       0.00061063       0.00229117
Al       5.72249650       3.31295068      10.00144430        6      -0.00077243       0.00057452       0.00227736
Al       8.58626648       3.31295833      10.00145983        6      -0.00076013       0.00060030       0.00235074
Al      11.45003242       3.31302350      10.00152864        6      -0.00078868       0.00063943       0.00233164
Al       4.29055416       5.79319583      10.00151383        6      -0.00081476       0.00066608       0.00235855
Al       7.15438387       5.79313725      10.00153784        6      -0.00073736       0.00064927       0.00245005
Al      10.01819526       5.79313982      10.00155447        6      -0.00072250       0.00066317       0.00253438
Al      12.88190031       5.79320737      10.00169903        6      -0.00078853       0.00068437       0.00254508
Al       5.72245485       8.27326428      10.00160404        6      -0.00080004       0.00059729       0.00240917
Al       8.58631975       8.27322138      10.00156851        6      -0.00072727       0.00059218       0.00250095
Al      11.45010997       8.27322004      10.00171425        6      -0.00074325       0.00058339       0.00257908
Al      14.31381129       8.27327752      10.00173643        6      -0.00081257       0.00059579       0.00251128
Al       0.00732539       1.65791129      12.40042542        5      -0.00046321      -0.00121995      -0.01070681
Al       2.87081797       1.65789638      12.40004303        5      -0.00134002      -0.00124015      -0.01112481
Al       5.73495683       1.65765727      12.40035199        5       0.00010024      -0.00209702      -0.01057690
Al       8.59889347       1.65759252      12.40108127        5      -0.00024438      -0.00155205      -0.01007967
Al       1.43896207       4.13868239      12.40097010        5      -0.00072790      -0.00034165      -0.00721341
Al       4.30280771       4.13856042      12.39972771        5      -0.00089120       0.00022229      -0.00917497
Al       7.16698720       4.13854382      12.40010313        5       0.00014351      -0.00041644      -0.00732481
Al      10.03091414       4.13869609      12.40088606        5      -0.00021263      -0.00001606      -0.00770773
Al       2.87099289       6.61908072      12.40201636        5      -0.00110137       0.00011910      -0.00503055
Al       5.73483136       6.61910762      12.40071738        5      -0.00082650      -0.00003686      -0.00752534
Al       8.59908342       6.61911602      12.40115380        5       0.00065739      -0.00038465      -0.00612864
Al      11.46298211       6.61907662      12.40277283        5      -0.00013669      -0.00006357      -0.00451228
Al       4.30289832       9.09858811      12.40229632        5      -0.00052559      -0.00139535      -0.00831118
Al       7.16692717       9.09864065      12.40113814        5      -0.00069339      -0.00126817      -0.01040537
Al      10.03093842       9.09852213      12.40220177        5       0.00008761      -0.00190633      -0.00725159
Al      12.89463697       9.09846226      12.40332326        5      -0.00039617      -0.00198951      -0.00724395
Al       0.00115343       0.00499654      14.69894590        4       0.00019214      -0.00013773      -0.00202486
Al       2.86391525       0.00477866      14.69909454        4      -0.00024908      -0.00059047      -0.00313044
Al       5.72894725       0.00410628      14.70077528        4       0.00064450      -0.00111698      -0.00247008
Al       8.59174941       0.00433086      14.70171382        4       0.00024636      -0.00086943      -0.00135229
Al       1.43121683       2.48387293      14.69455087        4      -0.00068512      -0.00001368      -0.00064288
Al       4.29616144       2.48324097      14.68829834        4      -0.00039058       0.00021230      -0.00048014
Al       7.16130085       2.48362584      14.69299579        4       0.00039423      -0.00012353      -0.00062091
Al      10.02534693       2.48438569      14.69366968        4       0.00020432       0.00020883      -0.00085507
Al       2.86338683       4.96677904      14.69552033        4      -0.00029756       0.00047520      -0.00158522
Al       5.72824221       4.96619129      14.69200510        4      -0.00010233       0.00030815      -0.00102969
Al       8.59325465       4.96637276      14.69507586        4       0.00048538       0.00026261      -0.00115520
Al      11.45516658       4.96668216      14.70101054        4       0.00033665       0.00021364      -0.00136428
Al       4.29532699       7.44641600      14.70219420        4      -0.00048761       0.00043950       0.00033069
Al       7.16048585       7.44658117      14.69755254        4       0.00013263      -0.00006600      -0.00145761
Al      10.02369028       7.44608226      14.70420144        4       0.00044808       0.00008537       0.00088467
Al      12.88683915       7.44635589      14.70623526        4      -0.00003633       0.00045929       0.00099623
Al       1.42572801       0.82181345      17.00623674        3      -0.00093006       0.00082691       0.00227110
Al       4.29186629       0.82138124      16.99272826        3      -0.00069432      -0.00009477       0.00108972
Al       7.16091666       0.81819886      17.00380057        3       0.00061107      -0.00038063       0.00001004
Al      10.02227997       0.82607914      16.99950775        3      -0.00047010       0.00069280       0.00310948
Al       2.85664156       3.30607628      16.98197719        3      -0.00105796       0.00009585       0.00176458
Al       5.72414651       3.30547099      16.98047707        3       0.00109470      -0.00016494      -0.00100238
Al       8.60013518       3.30678970      16.98819878        3      -0.00060947       0.00063116       0.00358740
Al      11.44878558       3.30837280      16.99940055        3      -0.00065285       0.00051758       0.00352278
Al       4.29073940       5.79059997      16.99907657        3      -0.00067968       0.00052995       0.00009096
Al       7.15837317       5.78982016      16.99218275        3       0.00047580      -0.00129973      -0.00118056
Al      10.02319347       5.78256697      17.00794776        3      -0.00008783      -0.00019892       0.00290359
Al      12.88423749       5.79246262      17.00884685        3      -0.00061584       0.00036565       0.00294901
Al       5.72704288       8.27283966      17.00437837        3      -0.00085315       0.00005303       0.00137437
Al       8.58631261       8.26979069      17.00547334        3       0.00001491      -0.00007427       0.00157372
Al      11.45472720       8.27013587      17.02022195        3      -0.00037627      -0.00027803       0.00193402
Al      14.31320151       8.27080350      17.02325977        3      -0.00053207      -0.00083056       0.00029834
Al      -0.01481542       1.67024394      19.27722957        2      -0.00175906      -0.00156521       0.00679049
Al       2.86108668       1.66821378      19.25094835        2      -0.00358669      -0.00204481       0.00340052
Al       5.73349426       1.66788498      19.23271572        2      -0.00176428      -0.00313090      -0.00433816
Al       8.59628621       1.67586782      19.25876449        2       0.00186553      -0.00342030       0.00231808
Al       1.42722758       4.11328996      19.26006536        2      -0.00164555      -0.00105185       0.00450181
Al       4.28692957       4.12755905      19.23792405        2       0.00206542       0.00149798      -0.00337009
Al       7.17660705       4.12710630      19.24504709        2      -0.00285779       0.00539681       0.00436982
Al      10.02603016       4.11442025      19.33032975        2      -0.00246501      -0.00078536       0.00301637
Al       2.87121139       6.61402984      19.30140834        2       0.00014716       0.00253265       0.00369171
Al       5.73686634       6.62573289      19.25712293        2       0.00077169      -0.00204720       0.00007621
Al       8.59237393       6.61186107      19.25982287        2      -0.00037414      -0.00091210      -0.00113638
Al      11.45207725       6.60972473      19.28962545        2       0.00107804       0.00422217       0.00397878
Al       4.31169963       9.11445718      19.27801805        2      -0.00157684       0.00220859       0.00685805
Al       7.16107103       9.10436226      19.30869454        2      -0.00030028       0.00120854      -0.00680213
Al      10.00447702       9.11068037      19.27868887        2       0.00138645       0.00016005       0.00498678
Al      12.88651618       9.09988135      19.33327319        2       0.00001032      -0.00041700       0.00080985
Al      -0.01924771      -0.01347627      21.71456748        1      -0.00553760      -0.00318755       0.00916666
Al       2.86230130      -0.02083338      21.72379754        1      -0.00208882      -0.00379187       0.01167287
Al       5.71791483       0.02826183      21.68226321        1      -0.00233827       0.00183117       0.00526003
Al       8.55929626       0.04404369      21.69628213        1      -0.00516871       0.00422646       0.00673250
Al       1.41589597       2.52695215      21.71895699        1      -0.00569996       0.00113748       0.01151788
Al       4.31612819       2.49481635      21.55506657        1      -0.00599312      -0.00261977      -0.00400572
Al       7.12317244       2.49290096      21.55505869        1      -0.00936774      -0.00171688      -0.01393130
Al       9.94396060       2.54905795      21.80520757        1      -0.01328237       0.00507145       0.01247384
Al       2.90438373       4.96630724      21.63976246        1       0.00008146       0.00027066      -0.00504234
Al       5.76215492       4.93812640      21.53220479        1      -0.00459527       0.00307284       0.00203853
Al       8.56431623       4.97543405      21.57689698        1       0.00137672       0.00627354       0.00424455
Al      11.45884347       4.99989036      21.61932208        1       0.00152291       0.00290496      -0.01068463
Al       4.31442369       7.41940059      21.69397132        1      -0.00309334       0.00011243       0.00157963
Al       7.15214515       7.40235725      21.66445756        1      -0.00118682       0.00012700       0.00198411
Al       9.99801511       7.42407167      21.64620403        1      -0.00017731       0.00008347      -0.00303101
Al      12.89244317       7.42285660      21.74344294        1       0.00009447      -0.00272386       0.01564397
C        5.84446462       3.82859826      24.88825513        0       0.02437489       0.06511419       0.01537333
N        6.95373925       3.12211346      24.72391668        0      -0.02014920      -0.01462998      -0.03718471
C        8.00408324       3.99919148      24.74048571        0      -0.02022438      -0.02363957      -0.01354861
S        9.59514149       3.66712115      24.24970330        0      -0.06427749      -0.00713921      -0.00762381
N        7.52935359       5.25589178      25.11796429        0       0.06750266      -0.02758960       0.01256341
N        6.10963237       5.16415352      25.18559630        0       0.03320292      -0.04602569      -0.00142524
H        4.81970536       3.49174712      24.74968285        0       0.04596111      -0.06882899       0.02036326
H        7.86854605       6.07320641      24.60503837        0       0.07704148       0.07489743       0.02414846
H        5.67018621       5.85026273      24.55686634        0      -0.05542873       0.03886803      -0.00386199
