105
Lattice="11.45512985522207 0.0 0.0 5.727564927611035 9.92043345827187 0.0 0.0 0.0 31.691342951089922" Properties=species:S:1:pos:R:3:tags:I:1:forces:R:3 energy=-424.5838623046875 free_energy=-424.5838623046875 stress="0.006249689031392336 1.1883676052093506e-06 -2.2444874048233032e-07 1.1883676052093506e-06 0.006298977881669998 1.8011778593063354e-06 -2.2444874048233032e-07 1.8011778593063354e-06 0.00645405100658536" pbc="T T F"
Al       1.40270878       0.88876845       9.95916775        6      -0.00008346       0.00028765      -0.00087117
Al       4.26685471       0.88619807       9.97057676        6      -0.00010999       0.00026753      -0.00061221
Al       7.12973838       0.88619822       9.97544631        6      -0.00004880       0.00030069      -0.00084815
Al       9.99258163       0.88854706       9.96901545        6      -0.00010697       0.00031810      -0.00086630
Al       2.83173319       3.37156262       9.96846165        6      -0.00012270       0.00045061      -0.00101784
Al       5.69643810       3.36807303       9.97110098        6      -0.00012564       0.00031571      -0.00159879
Al       8.56009494       3.36837566       9.97091711        6      -0.00001075       0.00030587      -0.00153525
Al      11.42487933       3.37142597       9.96839911        6      -0.00004500       0.00039971      -0.00130581
Al       4.26404684       5.85128497       9.97781327        6      -0.00014069       0.00060336      -0.00072063
Al       7.13066865       5.84919930       9.97641424        6      -0.00010470       0.00049980      -0.00113392
Al       9.99496850       5.84944727       9.97991051        6       0.00001422       0.00051154      -0.00091790
Al      12.85788732       5.85238141       9.98687952        6      -0.00002648       0.00051158      -0.00043649
Al       5.69801995       8.33000318       9.96728288        6      -0.00010697       0.00044252      -0.00001330
Al       8.56370292       8.32824641       9.97105618        6      -0.00004410       0.00041875      -0.00007837
Al      11.42776311       8.32833343       9.98356283        6      -0.00003631       0.00045590       0.00012366
Al      14.28876613       8.33129531       9.98135843        6      -0.00002010       0.00041972      -0.00000488
Al       0.00972712       1.69532318      12.35224083        5       0.00050187      -0.00085441      -0.00279028
Al       2.87017991       1.69908836      12.35373889        5       0.00099548      -0.00527633      -0.00930625
Al       5.73642762       1.69743349      12.35044217        5      -0.00154451      -0.00387963       0.00085503
Al       8.60133903       1.69437840      12.35487782        5       0.00029352      -0.00217979       0.00252540
Al       1.44388476       4.17978855      12.35826746        5      -0.00048163       0.00004345       0.00387729
Al       4.30222524       4.18029680      12.34676458        5      -0.00001083      -0.00001781       0.00568878
Al       7.16912655       4.17914713      12.34796493        5       0.00054610      -0.00015241       0.00352234
Al      10.03866428       4.17778353      12.34920869        5      -0.00038023       0.00085594       0.00613885
Al       2.87677034       6.66168911      12.37536811        5      -0.00090556       0.00188845       0.00285358
Al       5.73660878       6.66502137      12.35906265        5      -0.00047817       0.00183024       0.00324117
Al       8.60322035       6.66316061      12.36017988        5       0.00074275       0.00223691       0.00013101
Al      11.47070693       6.66121389      12.37631131        5      -0.00157805       0.00221522       0.00002534
Al       4.30446672       9.13959460      12.37760074        5      -0.00044019      -0.00000011      -0.00342110
Al       7.16810352       9.14339999      12.36707818        5       0.00163927       0.00042948      -0.01293245
Al      10.03276997       9.14043495      12.38148446        5      -0.00012094       0.00092022      -0.01750208
Al      12.89738634       9.13933639      12.38303687        5      -0.00016507       0.00025948      -0.00261636
Al       0.02385172       0.03833387      14.66734223        4      -0.00139992      -0.00011317       0.00066591
Al       2.87713341       0.04073968      14.67003129        4      -0.00075959      -0.00020630       0.00006969
Al       5.73995070       0.03002716      14.68617871        4      -0.00045011       0.00223483      -0.00929841
Al       8.60857137       0.02844987      14.69185122        4       0.00135427       0.00150663      -0.00262061
Al       1.44737002       2.49936803      14.64135792        4      -0.00132539       0.00304586       0.00491352
Al       4.30111611       2.50192662      14.62878323        4       0.00085846       0.00192851       0.00358133
Al       7.16918624       2.49630145      14.63319094        4       0.00025022       0.00127659       0.00112652
Al      10.04585326       2.50258137      14.63823858        4      -0.00073641       0.00081547       0.00123580
Al       2.88066765       4.99310569      14.66184640        4      -0.00059306      -0.00034247       0.00015774
Al       5.73848817       4.99355694      14.63365222        4       0.00019488       0.00055559       0.00064780
Al       8.61362118       4.99362177      14.63332858        4      -0.00035012       0.00055104       0.00075167
Al      11.47722008       4.99026606      14.66201433        4      -0.00026203       0.00042534       0.00052076
Al       4.31126171       7.48221135      14.68786642        4       0.00172360      -0.00100239      -0.00345433
Al       7.17813596       7.49115604      14.64703053        4      -0.00057964      -0.00304694       0.00272305
Al      10.04433619       7.48258762      14.67028009        4      -0.00451301      -0.00493643      -0.00221832
Al      12.90682853       7.48404660      14.69224195        4      -0.00012519      -0.00728294      -0.00936392
Al       1.40343680       0.82014654      17.01669508        3       0.00880316       0.02057388      -0.00286723
Al       4.26552772       0.82483419      16.98253696        3       0.00002003       0.00237859      -0.00028219
Al       7.15396101       0.81771902      16.99005305        3      -0.00154958       0.00416829      -0.00327294
Al      10.04158272       0.83983711      17.00183778        3      -0.00343169      -0.00005642       0.00038355
Al       2.84229713       3.28846565      16.96311727        3      -0.00059026       0.00040653       0.00082268
Al       5.70659194       3.30368648      16.92151518        3       0.00015210       0.00030639       0.00205569
Al       8.58439090       3.30957398      16.92113969        3      -0.00009717       0.00062982       0.00110670
Al      11.44332081       3.29730599      16.96678859        3       0.00001802       0.00057213       0.00091432
Al       4.28911623       5.79251699      16.96631644        3       0.00005256       0.00119956       0.00105961
Al       7.15329322       5.81491225      16.92561979        3      -0.00077416       0.00024014       0.00221504
Al      10.01756415       5.79438756      16.96035013        3       0.00012832       0.00100433       0.00111359
Al      12.88309150       5.80053638      16.98215250        3      -0.00058959      -0.00013307       0.00080891
Al       5.73871426       8.30550460      16.99476833        3      -0.00516493      -0.00368027       0.00114067
Al       8.58196705       8.30028006      16.98644833        3      -0.00061825      -0.00095693      -0.00049354
Al      11.44435913       8.27706578      16.98348131        3      -0.00108473       0.00011098       0.00254195
Al      14.32791354       8.27931438      17.01985090        3       0.00079127       0.00258434      -0.00304206
Al      -0.05660685       1.67160239      19.42690489        2       0.00080211       0.00072823      -0.00373290
Al       2.76961337       1.62803516      19.32749127        2       0.00373808       0.00567682       0.01530832
Al       5.64728744       1.64157349      19.24509089        2      -0.00303362       0.00058081      -0.00466755
Al       8.56720841       1.70787554      19.22480293        2      -0.00310812      -0.01049445       0.01686749
Al       1.36239056       4.11968723      19.23851810        2       0.00084426       0.00101626       0.00870932
Al       4.23684534       4.12521997      19.21703546        2      -0.00047250       0.00044629       0.00201781
Al       7.13081938       4.13548313      19.18741966        2      -0.00754330       0.01027966      -0.01014138
Al       9.96701167       4.13042395      19.23775217        2      -0.00282002      -0.00032197      -0.00811291
Al       2.83065428       6.62386996      19.28919917        2      -0.00674143      -0.00113465       0.00650107
Al       5.68809766       6.67502799      19.24479973        2       0.00062823      -0.00893781      -0.00243309
Al       8.54646025       6.65964336      19.23740448        2      -0.00092457      -0.00088236      -0.00904549
Al      11.41486251       6.64440531      19.29621747        2       0.00222583       0.00049510      -0.00119640
Al       4.26461857       9.14454477      19.34315150        2      -0.00553713      -0.00464905       0.00077649
Al       7.13179187       9.12977908      19.37442935        2      -0.00134622       0.00161514       0.00275594
Al       9.96945451       9.11572770      19.30750239        2      -0.00037494      -0.00215109       0.01425353
Al      12.81989838       9.07283217      19.28888713        2       0.00933485       0.01358954       0.02675877
Al      -0.37195861      -0.02931102      22.02614807        1       0.01865121      -0.00350508      -0.02026376
Al       2.72295315      -0.04182898      22.18962529        1      -0.00156996       0.00222886      -0.00815709
Al       5.59667201       0.10455476      21.71168167        1      -0.00124691       0.00075875       0.00100364
Al       8.38219025       0.11967781      21.59225540        1      -0.00548272      -0.01295417      -0.00112848
Al       1.23443861       2.60670078      21.90316863        1      -0.00272991       0.00174069      -0.00059143
Al       4.16331955       2.50911044      21.57340892        1      -0.00639564       0.00008258      -0.00463675
Al       6.99798154       2.54592158      21.47057540        1       0.00008223       0.00244403       0.00972295
Al       9.76270588       2.58838825      21.93304411        1       0.00019275       0.00983296       0.00389866
Al       2.74117997       4.98500351      21.61871511        1       0.00074525       0.00074586       0.00045801
Al       5.63595127       4.98686790      21.49894951        1      -0.00016521       0.00318497      -0.01003499
Al       8.41560643       5.05127968      21.49257412        1       0.00474133      -0.00407923       0.00589044
Al      11.25807960       5.00824359      21.53962878        1      -0.00355168      -0.00065982       0.00797075
Al       4.13798861       7.42432257      21.67064453        1       0.00058773      -0.00351753       0.00015813
Al       6.99224388       7.47192732      21.65130297        1      -0.00071670      -0.00033501       0.00095289
Al       9.84603207       7.47213364      21.63282840        1      -0.00071711      -0.00541063      -0.00386756
Al      12.70622589       7.42509037      22.01332032        1      -0.00213006      -0.00036829       0.01181770
C        6.10121528       3.87510384      24.71665401        0       0.01860429       0.01436760       0.00794431
N        6.98658628       2.93937763      24.38320915        0       0.02226540       0.00987935       0.00571030
C        8.21694314       3.42321394      24.72767283        0       0.00734013      -0.07043039      -0.01143467
S        9.73261499       2.71899465      24.36774395        0      -0.03300425       0.00811902      -0.00400225
N        8.06129547       4.60813604      25.38942118        0      -0.00643488       0.02830464      -0.01083464
N        6.70645330       4.95897682      25.33535030        0      -0.01656470       0.00561708       0.02544199
H        5.03455974       3.85323779      24.50987209        0       0.00648012      -0.01776715      -0.02009270
H        8.77666105       5.31464929      25.52451838        0       0.01944957       0.00639145       0.01472184
H        6.52325852       5.89448760      24.94867908        0       0.00905134      -0.01010473      -0.01735693
