105
Lattice="11.45512985522207 0.0 0.0 5.727564927611035 9.92043345827187 0.0 0.0 0.0 31.691342951089922" Properties=species:S:1:pos:R:3:tags:I:1:forces:R:3 energy=-424.3353576660156 free_energy=-424.3353576660156 stress="0.006166702602058649 1.4547258615493774e-06 -2.253800630569458e-07 1.4547258615493774e-06 0.006213688291609287 1.4137476682662964e-06 -2.253800630569458e-07 1.4137476682662964e-06 0.0063170562498271465" pbc="T T F"
Al       1.41043647       0.89347939       9.97080335        6       0.00053153       0.00028705       0.00135638
Al       4.27425653       0.89144301       9.97745546        6       0.00052080       0.00036602       0.00152604
Al       7.13861282       0.89088055       9.98263826        6       0.00045126       0.00038391       0.00150866
Al      10.00263401       0.89283010       9.97895237        6       0.00044899       0.00031713       0.00121928
Al       2.83987105       3.37457183       9.97743826        6       0.00050269       0.00040474       0.00158714
Al       5.70336546       3.37307624       9.97521191        6       0.00042167       0.00042441       0.00159636
Al       8.56909283       3.37263624       9.97552900        6       0.00044903       0.00040772       0.00135256
Al      11.43407515       3.37437051       9.97692615        6       0.00050213       0.00038051       0.00141654
Al       4.27227162       5.85468019       9.98603518        6       0.00047194       0.00034873       0.00167594
Al       7.13750606       5.85312141       9.98032459        6       0.00042950       0.00034373       0.00151542
Al      10.00316482       5.85319352       9.98550408        6       0.00046132       0.00039866       0.00137186
Al      12.86633410       5.85491409       9.99423496        6       0.00047560       0.00034955       0.00162051
Al       5.70633497       8.33345912       9.98120591        6       0.00047168       0.00029384       0.00157715
Al       8.57098514       8.33208086       9.98098937        6       0.00050131       0.00037567       0.00157818
Al      11.43614075       8.33124810       9.99257947        6       0.00047783       0.00040425       0.00173130
Al      14.29882546       8.33333272       9.99375066        6       0.00043166       0.00030904       0.00167825
Al       0.01587099       1.69921366      12.36665826        5       0.00123525       0.00054851       0.00246209
Al       2.87786035       1.69924917      12.36829188        5       0.00012672       0.00112310       0.00253934
Al       5.74005212       1.69641179      12.37352927        5      -0.00029497       0.00125606       0.00040682
Al       8.60627109       1.69600598      12.37123269        5      -0.00036402       0.00151684       0.00109129
Al       1.44768463       4.18197541      12.38206029        5       0.00092922       0.00051325       0.00071245
Al       4.30838939       4.18125776      12.37359286        5       0.00021217       0.00062352       0.00176309
Al       7.17449434       4.18017464      12.36431399        5       0.00006546       0.00079028       0.00540316
Al      10.04151614       4.18178246      12.37177680        5       0.00055885       0.00066444       0.00232436
Al       2.87908495       6.66609167      12.39380248        5       0.00016950      -0.00259883       0.00014928
Al       5.74209727       6.66698878      12.37804932        5       0.00031424      -0.00208226       0.00060647
Al       8.60950706       6.66662631      12.37694803        5       0.00000296      -0.00076189       0.00154399
Al      11.47339191       6.66643462      12.39110884        5      -0.00002186      -0.00195634       0.00111251
Al       4.30765959       9.14250588      12.38248993        5       0.00195860      -0.00068467       0.00292404
Al       7.17530822       9.14533791      12.37582151        5       0.00020047      -0.00100489      -0.00037848
Al      10.03923196       9.14479546      12.38636852        5      -0.00021157      -0.00120981       0.00089733
Al      12.90111518       9.14285987      12.39623993        5       0.00037625      -0.00115261      -0.00174544
Al       0.01960559       0.03833265      14.67994340        4       0.00010134       0.00014984       0.00106580
Al       2.88152588       0.04272339      14.68595517        4      -0.00224472      -0.00280066      -0.00656002
Al       5.74652305       0.03362503      14.70222322        4      -0.00168149      -0.00042609      -0.00674744
Al       8.61196330       0.03390655      14.69810590        4      -0.00069065      -0.00028083      -0.00094456
Al       1.45048973       2.51137760      14.67440780        4      -0.00039503       0.00068870       0.00004591
Al       4.30759294       2.51025357      14.66886096        4      -0.00067921      -0.00003913      -0.00020483
Al       7.17394406       2.50501792      14.66173850        4       0.00006851       0.00030509       0.00072956
Al      10.04486628       2.50687729      14.66203538        4       0.00017513       0.00068579       0.00105611
Al       2.88374948       4.99517766      14.68801968        4      -0.00048842       0.00026123       0.00148218
Al       5.74100430       4.99519829      14.66581011        4       0.00066557       0.00063448       0.00000494
Al       8.61390269       4.99675739      14.66307670        4       0.00012642       0.00091695      -0.00099783
Al      11.47731367       4.99540235      14.68586727        4       0.00023691       0.00067618       0.00177639
Al       4.31528022       7.48179752      14.69439488        4      -0.00072434      -0.00116889      -0.00164188
Al       7.17781801       7.48614389      14.67194319        4       0.00035467      -0.00056725       0.00018636
Al      10.04759155       7.48333395      14.69027815        4      -0.00165053      -0.00209993      -0.00101281
Al      12.90806794       7.48062691      14.70316270        4      -0.00004511      -0.00035521       0.00140557
Al       1.40890480       0.84756035      16.99538480        3      -0.00136739      -0.00488080       0.00915473
Al       4.26744742       0.83198878      16.99533550        3      -0.00160111      -0.00170752       0.00126979
Al       7.14461548       0.82291109      17.00852032        3       0.00018944       0.00058532      -0.00108930
Al      10.01763442       0.83971900      16.99924928        3       0.00078441       0.00096416       0.00265354
Al       2.83503776       3.30225048      16.99059702        3      -0.00191481       0.00154989      -0.00023160
Al       5.69768148       3.31355454      16.94636572        3       0.00173799      -0.00077526       0.00366931
Al       8.58281595       3.32323101      16.93048629        3       0.00087467      -0.00232668       0.00866628
Al      11.44199437       3.30838772      16.97559427        3       0.00040271       0.00113968       0.00470336
Al       4.27986964       5.80680639      16.99246508        3       0.00003702       0.00047118       0.00190874
Al       7.15096580       5.81886303      16.95000712        3      -0.00056581       0.00015372       0.00329580
Al      10.01390714       5.80349232      16.99071692        3       0.00364820       0.00239536       0.00201593
Al      12.87682948       5.81117906      17.01074991        3       0.00031387       0.00046477       0.00289140
Al       5.71656488       8.29963379      16.99341475        3       0.00109960       0.00106653       0.00347128
Al       8.57260519       8.29816019      16.98266125        3       0.00108354       0.00213156       0.00399020
Al      11.43534821       8.28334372      17.01302150        3       0.00126569      -0.00032208       0.00630814
Al      14.30971651       8.28063035      17.02108895        3      -0.00129316      -0.00021427       0.00266485
Al      -0.06584429       1.67531341      19.36616021        2       0.00091368      -0.00049447       0.00105730
Al       2.77104825       1.63302067      19.30626063        2      -0.00083111       0.00055055       0.00805204
Al       5.63816535       1.63995176      19.23832915        2      -0.00301834       0.00007673      -0.00031372
Al       8.56685695       1.69988582      19.23866369        2       0.00047403      -0.00155682       0.00525498
Al       1.35653861       4.13624439      19.27940924        2      -0.00054513      -0.00172716      -0.00211118
Al       4.22125656       4.12904603      19.22371106        2       0.00162135      -0.00045381       0.00018351
Al       7.11615486       4.13076351      19.18074653        2      -0.00344186       0.00616078      -0.00250617
Al       9.97291805       4.12769964      19.24999649        2      -0.00233807      -0.00075928      -0.00910213
Al       2.81809239       6.62380082      19.34811840        2      -0.00337698       0.00355837      -0.00865965
Al       5.68086280       6.67186401      19.25458046        2       0.00110791      -0.00082960      -0.01009452
Al       8.53895303       6.67914898      19.22949716        2       0.00071078      -0.00394746      -0.00457245
Al      11.41239096       6.64942503      19.34747766        2       0.00128816       0.00033814      -0.00229754
Al       4.24494096       9.12824063      19.29197464        2       0.00082704       0.00022791       0.00446557
Al       7.11570174       9.12640041      19.34836528        2      -0.00015616       0.00303912      -0.00281053
Al       9.95637137       9.10504568      19.34726323        2      -0.00169521       0.00191681      -0.00103662
Al      12.81794210       9.08612083      19.36203177        2      -0.00072475      -0.00048575      -0.00439797
Al      -0.32805952      -0.03622975      21.94539336        1       0.00249451      -0.00696038      -0.00534059
Al       2.70477614       0.01705066      22.16353927        1       0.00112166      -0.00274487       0.00187934
Al       5.59220543       0.09228466      21.72100517        1      -0.00050027      -0.00205629      -0.00205592
Al       8.39692359       0.08995741      21.59241572        1       0.00056663      -0.01002625       0.00664981
Al       1.21913990       2.60465314      21.87824462        1      -0.00042760      -0.00010110      -0.00076749
Al       4.16805796       2.51365443      21.56092476        1      -0.00280742      -0.00302432      -0.00134100
Al       7.00197707       2.50956030      21.47379994        1      -0.00410205       0.00600993      -0.00569579
Al       9.76542323       2.56775568      21.92483181        1       0.00337598       0.00471202      -0.00765779
Al       2.74488080       4.97825013      21.65061284        1       0.00178058      -0.00015685       0.00091355
Al       5.62940844       4.97511239      21.46647113        1       0.00129058       0.00018185      -0.00472974
Al       8.41963885       5.00603996      21.45776208        1       0.00083509       0.00094851       0.00235344
Al      11.24804224       4.99583717      21.58659841        1       0.00072930       0.00013874       0.00384829
Al       4.14523976       7.41989425      21.70789112        1       0.00014274      -0.00170454       0.00230956
Al       7.01125439       7.44655574      21.67365250        1       0.00203276      -0.00110867       0.00148224
Al       9.82982615       7.39507213      21.67253246        1       0.00021754      -0.00103060      -0.00193976
Al      12.72430254       7.42816789      22.08230556        1      -0.00286723      -0.00086858       0.00831860
C        6.10658842       3.88449170      24.64920783        0      -0.00606465      -0.04355144      -0.02247939
N        6.97135566       2.89646451      24.41685491        0      -0.02126847       0.01083468       0.00741989
C        8.21288087       3.39953634      24.63763508        0      -0.01526227       0.01366131      -0.00303098
S        9.69632113       2.62323846      24.33875667        0       0.01533871      -0.00855458       0.00031150
N        8.11652201       4.74089142      24.96141738        0      -0.00053000       0.00567712      -0.01844856
N        6.73612955       5.03495789      25.09312149        0      -0.00009814       0.02430151      -0.00494692
H        5.03728999       3.84012662      24.46272303        0      -0.00508410       0.00665916      -0.00338466
H        8.76878299       5.19352917      25.59818769        0       0.00458679       0.00648629      -0.00404617
H        6.44692166       5.90667631      24.62466542        0       0.02305311      -0.00197766      -0.01184669
