105
Lattice="11.45512985522207 0.0 0.0 5.727564927611035 9.92043345827187 0.0 0.0 0.0 31.691342951089922" Properties=species:S:1:pos:R:3:tags:I:1:forces:R:3 energy=-424.44061279296875 free_energy=-424.44061279296875 stress="0.006381209008395672 1.2386590242385864e-06 -2.0908191800117493e-07 1.2386590242385864e-06 0.0064335535280406475 1.703854650259018e-06 -2.0908191800117493e-07 1.703854650259018e-06 0.006576402112841606" pbc="T T F"
Al       1.40364301       0.88363074       9.96457032        6       0.00056565       0.00102874      -0.00013529
Al       4.26793038       0.88136931       9.97442587        6       0.00064036       0.00097344       0.00046524
Al       7.13066555       0.88142085       9.97864759        6       0.00065605       0.00100139       0.00052738
Al       9.99365330       0.88341631       9.97270694        6       0.00059207       0.00107823       0.00030226
Al       2.83322227       3.36543194       9.97259373        6       0.00053699       0.00128389       0.00000047
Al       5.69798671       3.36264259       9.97625998        6       0.00057821       0.00110543      -0.00037274
Al       8.56111256       3.36296582       9.97581829        6       0.00068799       0.00111561      -0.00015297
Al      11.42567797       3.36570537       9.97323420        6       0.00062095       0.00126824      -0.00006533
Al       4.26542205       5.84490461       9.98022837        6       0.00058014       0.00147659       0.00048102
Al       7.13178218       5.84301344       9.98001246        6       0.00058596       0.00138365       0.00013469
Al       9.99550307       5.84354014       9.98363431        6       0.00076505       0.00134922       0.00030936
Al      12.85858422       5.84605279       9.98830266        6       0.00067010       0.00141000       0.00092656
Al       5.69910407       8.32374578       9.96830287        6       0.00058775       0.00137549       0.00133417
Al       8.56439839       8.32201061       9.97312692        6       0.00070670       0.00135705       0.00112557
Al      11.42818017       8.32228153       9.98358748        6       0.00071955       0.00136148       0.00152386
Al      14.28958639       8.32510638       9.98086039        6       0.00067625       0.00134788       0.00155241
Al       0.01027648       1.69351250      12.35464922        5      -0.00019184      -0.00090979      -0.00711128
Al       2.86943598       1.69484366      12.35812838        5       0.00062542      -0.00203609      -0.01400123
Al       5.73199657       1.69275178      12.36109959        5       0.00160680      -0.00301169      -0.01000203
Al       8.59727635       1.68987457      12.36107837        5       0.00205130      -0.00136722      -0.00425549
Al       1.44205943       4.17948697      12.36846343        5      -0.00044029      -0.00065035      -0.00626333
Al       4.29924247       4.17948873      12.35876621        5       0.00067610      -0.00062110      -0.00597145
Al       7.16548290       4.17671482      12.35817688        5       0.00233071      -0.00043962      -0.00525241
Al      10.03547673       4.17628928      12.36173843        5       0.00103992       0.00059568      -0.00568623
Al       2.87297879       6.66268543      12.38570128        5      -0.00019695       0.00090662      -0.00791941
Al       5.73222394       6.66376411      12.36756534        5       0.00058838       0.00201582      -0.00560691
Al       8.60119623       6.66341735      12.36722270        5       0.00207019       0.00029141      -0.00972319
Al      11.46857630       6.66227654      12.38312062        5      -0.00037388      -0.00048236      -0.01151969
Al       4.30126949       9.13706042      12.38272370        5       0.00079788       0.00077668      -0.00800741
Al       7.16896140       9.14229213      12.36750168        5       0.00012245      -0.00057806      -0.01452452
Al      10.03458352       9.14057399      12.38410665        5      -0.00108948      -0.00149463      -0.01979206
Al      12.89563998       9.13825398      12.39564219        5       0.00082032       0.00007464      -0.01706233
Al       0.01869243       0.03417534      14.66631701        4       0.00052160       0.00128922       0.00239993
Al       2.87631495       0.03721673      14.67096204        4       0.00014992       0.00092559       0.00176141
Al       5.73902731       0.03130675      14.69232475        4       0.00055238       0.00081644      -0.00098365
Al       8.60608961       0.02873083      14.69994804        4       0.00155559       0.00065460      -0.00225400
Al       1.44772076       2.49857798      14.64498232        4      -0.00062665       0.00185386       0.00399258
Al       4.29937582       2.50027416      14.63183273        4       0.00118056       0.00193018       0.00562940
Al       7.16462097       2.49149379      14.63699324        4       0.00193343       0.00267168       0.00261350
Al      10.04513567       2.48989741      14.63298725        4      -0.00121935       0.00500467       0.00663036
Al       2.88012574       4.98869634      14.66615499        4       0.00003756       0.00099203       0.00141861
Al       5.73415668       4.98889793      14.63869376        4       0.00146016       0.00158507       0.00185468
Al       8.61197920       4.99016647      14.63538676        4       0.00002709       0.00115190       0.00263572
Al      11.47653102       4.98684922      14.66594366        4       0.00018156       0.00110048       0.00112664
Al       4.30992589       7.47732127      14.69164335        4       0.00094016       0.00123627      -0.00096608
Al       7.17265786       7.48779600      14.64465961        4       0.00164321      -0.00142923       0.00599400
Al      10.04333075       7.47740737      14.66893055        4      -0.00031657       0.00087036       0.00191524
Al      12.90517533       7.48055841      14.68924360        4       0.00058763       0.00068255       0.00191772
Al       1.41218703       0.82266893      17.02042820        3       0.00181820       0.00421528       0.00234284
Al       4.27276240       0.82031457      16.98910990        3      -0.00088851       0.00447710       0.00172959
Al       7.15464765       0.81742817      17.00588663        3      -0.00027759       0.00324218      -0.00455447
Al      10.04077249       0.83423469      16.99789557        3      -0.00054586       0.00210798       0.00388250
Al       2.84171241       3.28572687      16.95847014        3       0.00070681       0.00168871       0.00336707
Al       5.70333632       3.29757398      16.91972772        3       0.00233645       0.00290079       0.00741510
Al       8.58677496       3.29886268      16.91625966        3       0.00112086       0.00407453       0.00496591
Al      11.45738487       3.29154442      16.95640644        3      -0.00603907       0.00343953       0.00998066
Al       4.28911271       5.79575496      16.96630311        3       0.00071106       0.00151647       0.00257258
Al       7.15501855       5.81739031      16.91850119        3      -0.00039598      -0.00106112       0.01132736
Al      10.02863261       5.80785482      16.94845409        3      -0.00323763      -0.00506664       0.01376763
Al      12.88825169       5.80345448      16.97730732        3      -0.00119874      -0.00168334       0.00546444
Al       5.73825711       8.30355936      16.98724099        3      -0.00154050      -0.00112947       0.00735526
Al       8.59099762       8.30675967      16.97958679        3      -0.00570339      -0.00722280       0.00546089
Al      11.44923190       8.28003880      16.99945831        3       0.00046380       0.00129500       0.00247280
Al      14.31921241       8.28328430      17.03058385        3       0.00416527       0.00046570      -0.00351179
Al      -0.04620124       1.66412720      19.43086761        2       0.00043611       0.00222532      -0.00788548
Al       2.78863114       1.62316859      19.34561991        2      -0.00378006       0.00057444      -0.00682367
Al       5.65966042       1.65172732      19.24357710        2      -0.00423436      -0.00215020      -0.00482544
Al       8.56710348       1.69802709      19.24144289        2       0.00134318       0.00087588      -0.00252184
Al       1.37531566       4.12307113      19.24841408        2      -0.00116878      -0.00088277      -0.00325034
Al       4.24075888       4.11065210      19.22715011        2       0.00029760       0.00361919      -0.00531099
Al       7.12325448       4.14479433      19.18503803        2      -0.00066078       0.00297409      -0.00534561
Al       9.97804798       4.12590132      19.21976171        2      -0.00289013      -0.00029559      -0.00474042
Al       2.83269416       6.60801854      19.29792166        2      -0.00441647       0.00373687      -0.00596305
Al       5.68745033       6.66350837      19.24435557        2       0.00267552      -0.00194099      -0.00302868
Al       8.55676927       6.65460524      19.23346800        2      -0.00044636       0.00309640      -0.00902058
Al      11.41756108       6.62594400      19.30794067        2       0.00288238       0.00600617      -0.00876557
Al       4.27097741       9.14088803      19.34476234        2      -0.00104667      -0.00025247      -0.00495779
Al       7.13645280       9.12445326      19.38876554        2       0.00105378       0.00493200      -0.00951019
Al       9.98101129       9.11270071      19.32752926        2      -0.00223196       0.00130361      -0.00573437
Al      12.82578485       9.06291964      19.32710889        2       0.00339690       0.00804632      -0.00029067
Al      -0.39179665      -0.02420742      22.05152475        1       0.02274215      -0.00576704      -0.01644099
Al       2.73370270      -0.04463433      22.17518654        1      -0.00029812      -0.00049887      -0.00242233
Al       5.61161974       0.09301570      21.71413818        1      -0.00151099       0.00413892       0.00287733
Al       8.40218236       0.09183148      21.59389911        1      -0.00879580       0.00453733       0.00306204
Al       1.24286836       2.59484009      21.90181212        1      -0.00171684       0.00395472       0.00173426
Al       4.16669019       2.50131811      21.57445436        1      -0.00243349       0.00077012       0.00285296
Al       6.99513646       2.54178046      21.48709816        1       0.00543210       0.00383167       0.00307948
Al       9.77176768       2.62254585      21.96747746        1      -0.00012134      -0.00490416      -0.01671962
Al       2.74840732       4.97840338      21.62192451        1       0.00156409       0.00152899       0.00261683
Al       5.63445489       4.98725010      21.48945316        1       0.00216179       0.00200572       0.00227388
Al       8.44375240       5.04591847      21.46692957        1       0.00000317      -0.00485404       0.01530955
Al      11.26107432       5.01971210      21.55247475        1       0.00336970      -0.00553450       0.00729882
Al       4.14206339       7.41287279      21.65678859        1       0.00214062       0.00153275       0.00449399
Al       7.01415073       7.46085460      21.62807898        1      -0.00356079       0.00340994       0.00920281
Al       9.85873766       7.47348762      21.64512199        1       0.01068059      -0.00365183       0.00047345
Al      12.72441685       7.42856874      21.98820509        1      -0.00198422      -0.00010494       0.01357633
C        6.08323859       3.87951097      24.69738486        0       0.01797937       0.02990223       0.02571300
N        6.98939326       2.96439865      24.36837640        0       0.02470729       0.02634248       0.04280816
C        8.20441298       3.47074131      24.71687564        0      -0.02888515       0.04115626      -0.00372433
S        9.73024141       2.80392740      24.36683394        0       0.02713970      -0.02083421       0.00664059
N        8.03507906       4.67682526      25.34956554        0       0.04971799       0.00232821       0.00794460
N        6.65751234       4.97871119      25.34688321        0      -0.04903331       0.04497086      -0.11174472
H        5.01834920       3.80499900      24.49142045        0       0.01275063       0.02842024       0.02042899
H        8.73122409       5.42303031      25.33857829        0      -0.14261879      -0.09844171       0.03299663
H        6.44855224       5.89424501      24.91167230        0       0.04864960      -0.13368042       0.06866001
