105
Lattice="11.45512985522207 0.0 0.0 5.727564927611035 9.92043345827187 0.0 0.0 0.0 31.691342951089922" Properties=species:S:1:pos:R:3:tags:I:1:forces:R:3 energy=-424.46746826171875 free_energy=-424.46746826171875 stress="0.0065382057800889015 1.1906959116458893e-06 -2.0209699869155884e-07 1.1906959116458893e-06 0.006587419658899307 1.6614794731140137e-06 -2.0209699869155884e-07 1.6614794731140137e-06 0.0067195771262049675" pbc="T T F"
Al       1.40747683       0.89454312       9.95477036        6       0.00041884       0.00007539       0.00213138
Al       4.27107907       0.89201583       9.96366575        6       0.00043766       0.00013874       0.00185642
Al       7.13555869       0.89152543       9.96889958        6       0.00040457       0.00005407       0.00202199
Al       9.99909027       0.89403732       9.96459840        6       0.00049788      -0.00002150       0.00213067
Al       2.83642556       3.37685360       9.96278027        6       0.00046527      -0.00004520       0.00199776
Al       5.70029312       3.37431635       9.96006662        6       0.00033537       0.00005761       0.00200609
Al       8.56610579       3.37406456       9.96091266        6       0.00038776      -0.00001494       0.00203561
Al      11.43094098       3.37640616       9.96142111        6       0.00047910      -0.00005664       0.00215143
Al       4.26887188       5.85779991       9.97344278        6       0.00040278      -0.00013218       0.00189230
Al       7.13468170       5.85568998       9.96780110        6       0.00035590      -0.00007092       0.00175763
Al      10.00061471       5.85550260       9.97251430        6       0.00041187      -0.00003514       0.00183188
Al      12.86338896       5.85787106       9.98279216        6       0.00045428      -0.00016393       0.00175629
Al       5.70312653       8.33596184       9.96896157        6       0.00042149      -0.00009831       0.00196911
Al       8.56839066       8.33426745       9.96872364        6       0.00038091       0.00000097       0.00179100
Al      11.43343387       8.33342987       9.98208717        6       0.00042797      -0.00003667       0.00160719
Al      14.29555874       8.33594019       9.98231303        6       0.00047865      -0.00016378       0.00192581
Al       0.01520315       1.70158995      12.36380035        5       0.00006452      -0.00080127      -0.00323769
Al       2.87419632       1.70218325      12.35657324        5       0.00048827      -0.00037086       0.00326800
Al       5.73859725       1.70057921      12.35901274        5       0.00031748      -0.00090782       0.00054765
Al       8.60555255       1.70088829      12.36364472        5       0.00056768      -0.00178887      -0.00490802
Al       1.44561376       4.18047962      12.36922168        5       0.00025201       0.00012924      -0.00199605
Al       4.30626198       4.18019068      12.36171310        5       0.00067060       0.00039363      -0.00195772
Al       7.17200838       4.18152938      12.35923462        5       0.00043513      -0.00072950      -0.00676202
Al      10.03844976       4.18036990      12.36425614        5       0.00070813       0.00002161      -0.00545576
Al       2.87977804       6.66150372      12.38179912        5      -0.00041064       0.00140135      -0.00388185
Al       5.73979770       6.66339579      12.36686687        5       0.00055367       0.00100959      -0.00314454
Al       8.60423291       6.66305987      12.36601814        5       0.00045812       0.00068776      -0.00223941
Al      11.46910162       6.66082083      12.37766807        5       0.00104948       0.00095619      -0.00115926
Al       4.31208301       9.14429505      12.37755564        5      -0.00062238      -0.00045296      -0.00460377
Al       7.17048275       9.14496340      12.35927595        5       0.00071070      -0.00019042       0.00549992
Al      10.03416192       9.14220854      12.36231589        5       0.00106725       0.00038782       0.00708317
Al      12.90230747       9.14249474      12.37895669        5       0.00047515      -0.00069514       0.00075967
Al       0.02077300       0.04049197      14.67838627        4       0.00052538       0.00028027       0.00344630
Al       2.87590579       0.03771453      14.66038371        4       0.00069665       0.00030621       0.00385988
Al       5.74309215       0.03292017      14.66740154        4       0.00056660       0.00023708       0.00381828
Al       8.61750985       0.03572223      14.67783440        4      -0.00027474      -0.00003302       0.00370948
Al       1.44691543       2.51367800      14.66527610        4       0.00071089      -0.00008508       0.00358162
Al       4.30804788       2.51211756      14.65207996        4       0.00026646      -0.00007908       0.00363275
Al       7.17705735       2.50839657      14.64589674        4      -0.00014889      -0.00028277       0.00341034
Al      10.04393982       2.51142609      14.65457991        4       0.00041888       0.00012301       0.00376991
Al       2.88200170       4.99435441      14.66933428        4       0.00040617       0.00013237       0.00344931
Al       5.74404409       4.99826673      14.64473985        4      -0.00011286      -0.00023734       0.00378476
Al       8.61356190       4.99732230      14.64753748        4       0.00032080       0.00014269       0.00357779
Al      11.47706978       4.99507610      14.66841130        4       0.00026818       0.00023447       0.00343668
Al       4.32070340       7.48351651      14.67714574        4       0.00009613       0.00009898       0.00352725
Al       7.17686126       7.48478726      14.66193190        4       0.00064851       0.00042348       0.00349077
Al      10.04032204       7.47850634      14.67029231        4       0.00051312       0.00038331       0.00348414
Al      12.90812053       7.47370295      14.67964261        4       0.00028554       0.00057083       0.00374283
Al       1.41645089       0.84170701      17.03571920        3      -0.00228128      -0.00021342      -0.01294282
Al       4.26668833       0.83462218      16.99245614        3      -0.00080446       0.00015558      -0.00428646
Al       7.14896202       0.83535012      16.99855542        3      -0.00164378      -0.00438174      -0.00229070
Al      10.02469771       0.84279416      17.01388406        3      -0.00201938      -0.00111948      -0.00412460
Al       2.83938935       3.30390317      16.99372489        3      -0.00021161      -0.00081011      -0.00162206
Al       5.70537004       3.31067045      16.95135052        3      -0.00143666       0.00070904      -0.00111952
Al       8.57481171       3.30789836      16.94733201        3       0.00253822       0.00286904      -0.00596018
Al      11.44782551       3.30747228      16.98505983        3      -0.00363698      -0.00046719      -0.00467815
Al       4.27761734       5.81276464      16.98054711        3       0.00035974      -0.00079356       0.00207095
Al       7.14853668       5.82104789      16.94138077        3       0.00005178       0.00000354       0.00326511
Al      10.01904780       5.81730320      16.97567693        3       0.00092624       0.00013512       0.00242926
Al      12.87989598       5.80167808      16.99895028        3      -0.00139616       0.00190771       0.00124233
Al       5.72359225       8.30981892      17.00570873        3      -0.00007365      -0.00127283      -0.00134356
Al       8.58444689       8.31406351      17.00065951        3      -0.00611280      -0.00455387      -0.00880409
Al      11.43753133       8.29481527      17.00605923        3       0.00086923      -0.00025761       0.00322902
Al      14.30396718       8.28563557      17.01287371        3      -0.00019816      -0.00015472       0.00066798
Al      -0.06323617       1.67666657      19.37325276        2      -0.00107236      -0.00021282       0.00039514
Al       2.77617973       1.63956082      19.35553598        2      -0.00122917      -0.00026555      -0.00410218
Al       5.63972640       1.66017983      19.24422029        2      -0.00124590      -0.00375983      -0.00018284
Al       8.55573205       1.69091656      19.26091810        2       0.00129357      -0.00037179      -0.00028243
Al       1.35148463       4.13720616      19.26277359        2       0.00115393       0.00011921       0.01046179
Al       4.22623476       4.13013441      19.24099156        2      -0.00108935       0.00083381      -0.00335194
Al       7.11260426       4.14215176      19.19451589        2      -0.00258912       0.00346797       0.00153905
Al       9.95381490       4.12902025      19.21036969        2       0.00237127       0.00113349       0.01282712
Al       2.80619409       6.63256945      19.32227518        2       0.00016317      -0.00202145       0.00785215
Al       5.68209279       6.66061141      19.23808834        2       0.00063941      -0.00119453       0.00237722
Al       8.53522788       6.65685528      19.23096168        2       0.00066818       0.00206538       0.00333800
Al      11.42169658       6.64244104      19.32824187        2      -0.00241614       0.00212545       0.00486043
Al       4.23181078       9.11478114      19.30794692        2       0.00103208       0.00134255      -0.00236622
Al       7.11279427       9.13250950      19.36029160        2       0.00015064       0.00056095      -0.00195655
Al       9.96756295       9.12847240      19.33240470        2      -0.00210948      -0.00688268       0.00844541
Al      12.81877322       9.09115011      19.34641596        2      -0.00105693       0.00071225      -0.00386983
Al      -0.28848886      -0.02057975      21.91541921        1      -0.00362711      -0.00520184       0.00221327
Al       2.70578770       0.02573364      22.12512423        1      -0.00152126      -0.00134359       0.00548440
Al       5.58355786       0.11195373      21.72140032        1       0.00049087      -0.00083015       0.00097595
Al       8.41116676       0.04698645      21.61383629        1      -0.00509054       0.00512239      -0.00186171
Al       1.21549824       2.61023372      21.89854229        1      -0.00138781       0.00044897      -0.00219950
Al       4.15992702       2.52283914      21.62056839        1      -0.00181785      -0.00058271      -0.00950543
Al       6.98940352       2.52361291      21.49395273        1       0.00173463       0.00078503      -0.00638528
Al       9.75884013       2.57412438      21.94046316        1       0.00146029       0.00043857      -0.00073407
Al       2.73609168       4.98834077      21.64862577        1       0.00066468      -0.00119159       0.00053114
Al       5.61856325       4.99030110      21.47706789        1       0.00241908      -0.00267385       0.00479909
Al       8.41859399       5.02315674      21.48205344        1       0.00006244      -0.00502550       0.00295317
Al      11.22116560       4.99505621      21.59365878        1       0.00276371       0.00018312      -0.00084519
Al       4.14003504       7.41071284      21.69749515        1       0.00004858       0.00122777       0.00184647
Al       6.99540262       7.45704504      21.67561616        1       0.00128127      -0.00087990       0.00205920
Al       9.83296607       7.41301253      21.63370154        1      -0.00078572      -0.00311100       0.00345947
Al      12.71045750       7.43454848      22.11492206        1      -0.00009486      -0.00157415      -0.00078143
C        6.12138093       3.87060533      24.65551240        0       0.02013719      -0.01087575       0.01092035
N        6.99019243       2.89001465      24.41183363        0      -0.00829702       0.02307869      -0.00080837
C        8.22961812       3.38383419      24.66735261        0      -0.00544445       0.01548760       0.00261800
S        9.71580076       2.61097211      24.37986852        0       0.00511525      -0.00463679      -0.01141550
N        8.12865130       4.71598121      25.03837778        0       0.00549714      -0.02568062       0.00017345
N        6.74474685       4.98401812      25.20828412        0      -0.00187084      -0.00754574      -0.02498842
H        5.05560585       3.83725909      24.44623921        0      -0.00396860       0.00335043       0.00395331
H        8.78127389       5.13711656      25.69679029        0      -0.00034416      -0.01087497      -0.00834289
H        6.46224079       5.88836079      24.81610133        0      -0.00575267       0.04173987      -0.04223462
