105
Lattice="11.45512985522207 0.0 0.0 5.727564927611035 9.92043345827187 0.0 0.0 0.0 31.691342951089922" Properties=species:S:1:pos:R:3:tags:I:1:forces:R:3 energy=-424.34619140625 free_energy=-424.34619140625 stress="0.005388206336647272 1.4402903616428375e-06 -2.4959444999694824e-07 1.4402903616428375e-06 0.005448189564049244 9.243376553058624e-07 -2.4959444999694824e-07 9.243376553058624e-07 0.005505837500095367" pbc="T T F"
Al       1.41844260       0.89214648      10.00903204        6       0.00001284       0.00000004       0.00020852
Al       4.28474213       0.89099028      10.02004345        6       0.00002230      -0.00011403       0.00021109
Al       7.14662344       0.89055950      10.02537229        6       0.00017811      -0.00005299       0.00030954
Al      10.00993604       0.89085384      10.01758994        6       0.00008588       0.00002199       0.00037453
Al       2.84976990       3.37372931      10.02291001        6       0.00000602       0.00002210       0.00006588
Al       5.71266017       3.37290641      10.02464777        6       0.00013846       0.00002404       0.00012877
Al       8.57733218       3.37175805      10.02268523        6       0.00012482      -0.00000216       0.00012359
Al      11.44154646       3.37412048      10.02047603        6       0.00001768       0.00001397       0.00006430
Al       4.28164307       5.85085359      10.03053912        6       0.00010630       0.00025586       0.00024593
Al       7.14611818       5.84945495      10.02537944        6       0.00016682       0.00026019       0.00021549
Al      10.01199403       5.85144427      10.02998544        6       0.00016186       0.00012588       0.00018709
Al      12.87448498       5.85225961      10.03745634        6       0.00014252       0.00015074       0.00032236
Al       5.71396679       8.32896552      10.01900396        6       0.00008487       0.00030565       0.00029784
Al       8.58028320       8.32878635      10.01950152        6       0.00014006       0.00020187       0.00033734
Al      11.44453429       8.32922113      10.03377971        6       0.00015500       0.00012625       0.00052438
Al      14.30614188       8.32958123      10.03174283        6       0.00018038       0.00016974       0.00052520
Al       0.01327039       1.68950853      12.39874662        5       0.00053824       0.00209698      -0.00128110
Al       2.87596039       1.69235409      12.40047679        5      -0.00217936       0.00052969      -0.00540646
Al       5.73947141       1.68894768      12.40279209        5      -0.00045212       0.00228916      -0.00002087
Al       8.60722710       1.68787590      12.40658278        5      -0.00072825       0.00175705      -0.00186122
Al       1.44533908       4.17368302      12.41358790        5       0.00064057      -0.00066891      -0.00460409
Al       4.30660797       4.17518836      12.40778214        5      -0.00044869      -0.00098406      -0.00136742
Al       7.17561054       4.17287760      12.40640641        5      -0.00145086       0.00018226      -0.00356154
Al      10.04053442       4.17310701      12.40925180        5      -0.00079652      -0.00018573      -0.00736623
Al       2.87675098       6.65626059      12.42285480        5      -0.00064869       0.00025527       0.00262337
Al       5.73879344       6.65719114      12.40227023        5       0.00032948      -0.00020950       0.00577961
Al       8.60705792       6.65868173      12.40246030        5       0.00026240      -0.00064625       0.00443880
Al      11.47154620       6.65816830      12.42321601        5       0.00044400      -0.00060910       0.00014142
Al       4.30694689       9.13365476      12.40633478        5       0.00033805      -0.00008772       0.00503826
Al       7.16898936       9.13466254      12.38973047        5       0.00097391       0.00041629       0.00560838
Al      10.03743277       9.13474716      12.41106748        5      -0.00167114      -0.00059389      -0.00299351
Al      12.90053714       9.13428098      12.41595837        5       0.00096410      -0.00113916       0.00424204
Al       0.01233343       0.03234129      14.69672481        4       0.00007127       0.00014608       0.00149990
Al       2.86614284       0.03148893      14.68807541        4      -0.00029687      -0.00019557       0.00059572
Al       5.73701639       0.02577801      14.70944171        4      -0.00010015      -0.00021834      -0.00016598
Al       8.60260367       0.02733687      14.71902139        4       0.00096858       0.00005035      -0.00014600
Al       1.43967389       2.50677196      14.69774982        4       0.00004418      -0.00094981      -0.00097486
Al       4.29606884       2.50323691      14.69286428        4      -0.00100543      -0.00116714      -0.00950517
Al       7.17060172       2.49993248      14.68571665        4      -0.00037938      -0.00021651      -0.00012972
Al      10.04510931       2.50562317      14.69436142        4      -0.00383583      -0.00357540      -0.00568960
Al       2.86995716       4.98925219      14.71135115        4      -0.00006847      -0.00000984       0.00061068
Al       5.73698940       4.99060434      14.68932209        4      -0.00092259      -0.00012760      -0.00197438
Al       8.61374600       4.99441953      14.69092226        4      -0.00077826      -0.00019490      -0.00076174
Al      11.46937301       4.98749503      14.70174030        4       0.00055225       0.00079978       0.00171990
Al       4.30464250       7.47511202      14.71927191        4       0.00071219      -0.00004490      -0.00091061
Al       7.17561501       7.48241033      14.69357345        4      -0.00578815      -0.00272449      -0.00973782
Al      10.04216197       7.47521411      14.71528477        4      -0.00160387      -0.00034358      -0.00390708
Al      12.90283031       7.47813986      14.73857144        4      -0.00168690      -0.00358379      -0.00683081
Al       1.40121234       0.84083982      17.03044056        3       0.00026613      -0.00054329       0.00218670
Al       4.24907518       0.81885750      16.98615622        3      -0.00037681      -0.00026551       0.00219991
Al       7.14172005       0.81517966      17.01251083        3      -0.00015821       0.00245126      -0.00201360
Al      10.02272002       0.83446956      17.03042448        3       0.00050336      -0.00046675       0.00001446
Al       2.82714004       3.28483959      17.00420899        3      -0.00137581       0.00138868      -0.00112241
Al       5.68614607       3.28977672      16.96326962        3       0.00281044       0.00317931      -0.00019877
Al       8.58020065       3.29713396      16.96106462        3       0.00024533       0.00364997      -0.00023673
Al      11.44002531       3.29317893      17.00067320        3      -0.00007697       0.00107637       0.00219609
Al       4.26911489       5.79914878      17.00438296        3       0.00017528      -0.00003808      -0.00070178
Al       7.13966622       5.81794426      16.95813043        3       0.00007485      -0.00072950       0.00288970
Al      10.02025471       5.81418440      17.00431689        3      -0.00068536      -0.00401696       0.00004423
Al      12.86709230       5.79343534      17.03395552        3       0.00033954       0.00028325      -0.00182653
Al       5.71363568       8.31125619      17.01391769        3       0.00021590      -0.00062225       0.00215009
Al       8.56047753       8.29516270      16.99536286        3       0.00060483       0.00109220       0.00229656
Al      11.43359584       8.28497167      17.04200737        3      -0.00184718      -0.00652602      -0.00955982
Al      14.31079272       8.28794292      17.05380207        3      -0.00248035      -0.00980549      -0.00900126
Al      -0.06031509       1.66353064      19.42282781        2      -0.00111969      -0.00026156       0.00184988
Al       2.76154693       1.62049057      19.36711545        2       0.00079637      -0.00133558       0.00393370
Al       5.61433066       1.62482400      19.21890944        2       0.00256412       0.00108989       0.00621716
Al       8.57682106       1.68455664      19.24263036        2      -0.00219803      -0.00088862       0.00525725
Al       1.36476501       4.10390702      19.27560707        2      -0.00111350      -0.00056546       0.00041096
Al       4.21809933       4.10579530      19.22071729        2       0.00061698      -0.00062430       0.00355675
Al       7.11310231       4.13655454      19.16832284        2      -0.00222158      -0.00005392       0.00086884
Al       9.97384211       4.12169254      19.23794816        2      -0.00031301      -0.00037254      -0.00117530
Al       2.81976394       6.60867280      19.32427171        2      -0.00103044       0.00011996      -0.00366549
Al       5.69688139       6.65851930      19.23367351        2      -0.00170952      -0.00159316       0.00012189
Al       8.54946681       6.66679016      19.23151290        2      -0.00146767       0.00034358      -0.00304583
Al      11.42169082       6.64091251      19.33627935        2       0.00025420      -0.00351921      -0.00013488
Al       4.25143733       9.11454471      19.34795013        2      -0.00068350      -0.00136599      -0.00416367
Al       7.10975539       9.11884176      19.36964499        2       0.00049546       0.00221522       0.00130586
Al       9.95171015       9.09635817      19.32307444        2      -0.00149767       0.00132522       0.00444610
Al      12.82290227       9.09309045      19.32240500        2       0.00143212      -0.00063835       0.00800980
Al      -0.32619759      -0.11690023      21.97875777        1      -0.00270193      -0.00378956       0.00106297
Al       2.72976516      -0.05753385      22.19147075        1       0.00053362       0.00297700      -0.00450252
Al       5.58975186       0.06483980      21.65342826        1       0.00107862       0.00088929      -0.00125254
Al       8.37537015       0.06620355      21.62324524        1       0.00095307      -0.00021949      -0.00228014
Al       1.21640238       2.59464421      21.92448060        1      -0.00133746       0.00166176       0.00307545
Al       4.16376000       2.47816453      21.58790914        1      -0.00008428       0.00163292      -0.00299097
Al       6.98145378       2.52201758      21.42738218        1       0.00131417      -0.00138321      -0.00004641
Al       9.77124569       2.56274254      21.91786297        1       0.00092185      -0.00051452      -0.00174619
Al       2.76619926       4.93699647      21.63683282        1      -0.00260776      -0.00016367      -0.00132446
Al       5.63502266       4.96141172      21.41689672        1       0.00015672      -0.00239518       0.00214846
Al       8.46260559       5.01184810      21.40162507        1      -0.00245940      -0.00270139       0.00321861
Al      11.26817901       4.99119464      21.58550326        1      -0.00040513      -0.00297532       0.00110036
Al       4.13400848       7.35064115      21.69624854        1       0.00184837       0.00383085       0.00219655
Al       7.04224801       7.43457130      21.64282923        1      -0.00141777      -0.00113364       0.00223753
Al       9.89104708       7.45212778      21.66661144        1      -0.00146834      -0.00375535      -0.00062158
Al      12.70096005       7.38527597      22.08170859        1       0.00167386       0.00323245      -0.00001261
C        6.08970370       3.99656986      24.53528818        0      -0.00828797      -0.01052963      -0.00250615
N        6.92704679       2.96415940      24.43322942        0      -0.01090066       0.00526027       0.00496129
C        8.18521217       3.46818677      24.55471811        0       0.01433568      -0.01144460       0.00291614
S        9.65415921       2.62540932      24.33800209        0       0.00284022      -0.00426700      -0.00715129
N        8.11296967       4.83362509      24.68358534        0      -0.01216626       0.00754905      -0.00539811
N        6.75003357       5.18386074      24.80747206        0       0.00460707       0.01497785      -0.00131570
H        5.01442032       3.95185090      24.37931635        0       0.00568858       0.00816288       0.00857081
H        8.82341911       5.41557191      25.11661366        0       0.03202085       0.02087476       0.01262738
H        6.48018580       6.00195773      24.23426599        0       0.00110448      -0.00130018       0.00668231
