105
Lattice="11.45512985522207 0.0 0.0 5.727564927611035 9.92043345827187 0.0 0.0 0.0 31.691342951089922" Properties=species:S:1:pos:R:3:tags:I:1:forces:R:3 energy=-424.23101806640625 free_energy=-424.23101806640625 stress="0.005759371444582939 6.100162863731384e-07 -2.2631138563156128e-07 6.100162863731384e-07 0.005822641775012016 1.8551945686340332e-06 -2.2631138563156128e-07 1.8551945686340332e-06 0.006009116768836975" pbc="T T F"
Al       1.40610396       0.86652220      10.00018894        6       0.00048152       0.00034865      -0.00325248
Al       4.27108499       0.86517321      10.00753311        6       0.00035747       0.00030159      -0.00280433
Al       7.13399932       0.86514623      10.00977075        6       0.00034021       0.00031254      -0.00309224
Al       9.99662119       0.86642956      10.00548674        6       0.00040837       0.00034243      -0.00324337
Al       2.83704804       3.34806516      10.00618359        6       0.00038646       0.00034690      -0.00319217
Al       5.70213548       3.34643494      10.00964202        6       0.00030365       0.00030323      -0.00338198
Al       8.56541836       3.34679129      10.01112266        6       0.00029117       0.00031582      -0.00342953
Al      11.42858488       3.34912795      10.00846946        6       0.00044008       0.00026048      -0.00364686
Al       4.26913769       5.82822640      10.01182208        6       0.00035236       0.00035588      -0.00312406
Al       7.13514642       5.82682300      10.01420962        6       0.00040572       0.00031966      -0.00314829
Al       9.99865263       5.82774996      10.01830122        6       0.00039212       0.00034526      -0.00329086
Al      12.86112395       5.82870567      10.01846575        6       0.00043084       0.00043693      -0.00298971
Al       5.70174381       8.30593512      10.00168067        6       0.00043688       0.00051635      -0.00272395
Al       8.56732463       8.30478353      10.00750983        6       0.00041769       0.00052018      -0.00260360
Al      11.43037219       8.30526100      10.01354775        6       0.00044567       0.00049570      -0.00236578
Al      14.29242290       8.30691402      10.00897889        6       0.00037807       0.00058093      -0.00258083
Al       0.00532734       1.67674153      12.37632284        5       0.00043561       0.00133983      -0.00743685
Al       2.86406465       1.67797041      12.37569264        5       0.00195949      -0.00026607      -0.00960130
Al       5.72873286       1.67353177      12.37511651        5       0.00011196       0.00189441      -0.00059419
Al       8.59583346       1.67245321      12.37618784        5      -0.00031096       0.00201593      -0.00011422
Al       1.43510206       4.15746933      12.38020563        5       0.00101519       0.00129161      -0.00033227
Al       4.29390855       4.15997387      12.37309143        5       0.00173531      -0.00049004       0.00096677
Al       7.16190129       4.15632755      12.37837497        5       0.00091622       0.00117325      -0.00174949
Al      10.03015886       4.15645421      12.37427297        5      -0.00022491       0.00148073       0.00377423
Al       2.86419915       6.64260165      12.38491038        5       0.00219080      -0.00014697       0.00258747
Al       5.72665880       6.64347130      12.37624469        5       0.00149785      -0.00044375      -0.00047534
Al       8.59538795       6.64307300      12.38182284        5       0.00123156      -0.00054187      -0.00331477
Al      11.46249413       6.64140733      12.39010661        5      -0.00076451       0.00030610      -0.00205834
Al       4.29942777       9.12170380      12.38133853        5      -0.00051376      -0.00136700      -0.00268793
Al       7.15972072       9.12115059      12.37535533        5       0.00310465      -0.00022948      -0.01073796
Al      10.02827439       9.11858635      12.38695392        5       0.00011211       0.00050841      -0.01136293
Al      12.89424177       9.11896910      12.38825716        5      -0.00133948       0.00068147      -0.00081991
Al       0.00288570       0.02031984      14.66090299        4       0.00107769       0.00042274      -0.00002253
Al       2.86645362       0.01911866      14.65490466        4       0.00026214       0.00052380      -0.00070629
Al       5.73640891       0.01857049      14.67444404        4       0.00042972      -0.00018431      -0.00100824
Al       8.60303705       0.01627657      14.68342047        4       0.00043740       0.00025881      -0.00091382
Al       1.43339799       2.49812393      14.66291259        4       0.00086423      -0.00007460      -0.00108777
Al       4.29383248       2.49688885      14.65682294        4       0.00077279       0.00008306      -0.00225338
Al       7.16640418       2.48725689      14.65633896        4       0.00037014       0.00052100      -0.00140324
Al      10.03347561       2.48672418      14.65842441        4       0.00059764       0.00077955      -0.00104709
Al       2.86701658       4.97998847      14.67141083        4       0.00069423       0.00077929      -0.00135781
Al       5.72611083       4.98181610      14.65056560        4       0.00084009       0.00037194      -0.00111631
Al       8.60613250       4.98054040      14.65551502        4       0.00048301       0.00013755      -0.00167421
Al      11.46916765       4.97896904      14.67283728        4       0.00032885       0.00020343      -0.00151028
Al       4.30142115       7.46626838      14.67562322        4       0.00026292       0.00045288      -0.00073487
Al       7.16208678       7.46834746      14.65606750        4       0.00085473       0.00046153      -0.00132135
Al      10.03674989       7.45678838      14.67223313        4       0.00075002       0.00111445      -0.00036004
Al      12.89656918       7.46402221      14.68133289        4       0.00072348       0.00062345       0.00001716
Al       1.41749745       0.82337394      16.98040901        3       0.00480390       0.01252529       0.01793523
Al       4.26709554       0.82062288      16.95047886        3       0.00543868       0.00038208       0.02202910
Al       7.16221846       0.81228261      16.97897738        3      -0.00188597       0.00543620       0.01465197
Al      10.03775154       0.82256146      16.99427715        3      -0.00196087       0.00331000       0.00586078
Al       2.85073699       3.30039410      16.96253803        3      -0.00279762      -0.00306588       0.00422160
Al       5.71000679       3.29573504      16.93611317        3       0.00047329       0.00022475      -0.00002146
Al       8.59671575       3.29298884      16.93052104        3      -0.00255309      -0.00041845       0.00412204
Al      11.45230917       3.29194005      16.97059284        3       0.00159351       0.00003179       0.00099919
Al       4.28350912       5.81159098      16.97090884        3       0.00067895      -0.00123735      -0.00007705
Al       7.15874173       5.81257669      16.92265017        3      -0.00012720      -0.00052846       0.00067537
Al      10.04317804       5.79377853      16.96385850        3       0.00012981       0.00112410      -0.00068389
Al      12.89771966       5.80122094      16.98287009        3      -0.00296867      -0.00192683       0.00417902
Al       5.72854927       8.30212187      16.97765366        3      -0.00091633      -0.00578384       0.00870200
Al       8.58807508       8.30171177      16.95293933        3       0.00395519      -0.00321583       0.01339042
Al      11.47131668       8.29035943      17.00650065        3      -0.00726478      -0.00369547       0.00241575
Al      14.31536197       8.28888901      17.01731880        3       0.00387578      -0.00426052       0.00522144
Al      -0.01235904       1.64477482      19.40251840        2      -0.00319163       0.00211841      -0.00288885
Al       2.80457111       1.61657412      19.34239530        2      -0.00138613      -0.00062482      -0.01038746
Al       5.65328152       1.62788107      19.21961241        2       0.00228750      -0.00025404      -0.00098717
Al       8.59140091       1.65405011      19.26299620        2      -0.00163983       0.00354171      -0.00434463
Al       1.40491082       4.10214057      19.26187518        2      -0.00311385       0.00260114      -0.00410397
Al       4.26016217       4.11011818      19.21326039        2      -0.00105313      -0.00023075       0.01014943
Al       7.12499780       4.15865975      19.17116129        2       0.00198964      -0.00610909      -0.00774712
Al       9.98751267       4.10436030      19.20550283        2       0.00187460       0.00120929       0.00633859
Al       2.82577449       6.61328986      19.32422468        2       0.00349366       0.00390818      -0.00809119
Al       5.71862841       6.63519059      19.21865020        2      -0.00366199       0.00543649       0.00883308
Al       8.57914080       6.65491075      19.18517016        2      -0.00143674       0.00217155       0.00763243
Al      11.45439525       6.63200894      19.29085830        2      -0.00354281       0.00198172      -0.00244713
Al       4.28951884       9.12027561      19.34735991        2      -0.00238614      -0.00004923      -0.00173879
Al       7.15608298       9.12428091      19.33238846        2      -0.00141266      -0.00249263       0.00617803
Al      10.01415799       9.09502417      19.33245816        2      -0.00350812       0.00360428      -0.00842827
Al      12.87094398       9.08347358      19.41949546        2      -0.00044318      -0.00075007      -0.00677472
Al      -0.28225566      -0.05159940      22.00814275        1      -0.00646410       0.00347881       0.00029495
Al       2.77511676      -0.07683783      22.08318750        1      -0.00147765       0.00436442      -0.00268577
Al       5.63827708       0.08510072      21.75918281        1      -0.00107668      -0.00135559      -0.00744615
Al       8.41121278       0.11761040      21.71447343        1       0.00790097      -0.00380767      -0.01211755
Al       1.21644085       2.58544864      21.96876358        1       0.01016479      -0.00088594      -0.01118002
Al       4.14991583       2.46550637      21.57093674        1       0.01111274       0.00299626       0.00364501
Al       6.99935797       2.55550041      21.43599362        1       0.00794516      -0.01510899       0.02230876
Al       9.78168693       2.64359793      21.90912339        1       0.00445081      -0.01186271       0.00983778
Al       2.81302230       4.94046293      21.59890507        1      -0.00427444       0.00290068       0.00152455
Al       5.67629692       4.97785793      21.49324107        1      -0.00799357       0.00035100       0.00323457
Al       8.49093880       5.04159012      21.41505082        1       0.00271668       0.00323592       0.02342159
Al      11.35065548       5.01810613      21.52724018        1      -0.00069330      -0.00576394       0.00017690
Al       4.19223512       7.40650162      21.63092776        1      -0.00010604       0.00588696       0.00641990
Al       7.07640709       7.43307625      21.59700438        1      -0.00251057       0.00199670       0.00451599
Al       9.98218629       7.44680781      21.61979557        1      -0.01627868       0.00187965       0.00372983
Al      12.80169919       7.38640668      22.16302513        1      -0.00174365       0.00467983      -0.04621733
C        6.03069230       3.89631045      24.68511332        0      -0.07092938      -0.02442203       0.01051627
N        7.01594930       3.05223617      24.38939352        0      -0.00012001      -0.01190277       0.00165274
C        8.18338769       3.68593853      24.65934930        0      -0.01588866      -0.05941553      -0.01070567
S        9.72246356       3.05251732      24.33390840        0       0.03218530       0.00418700      -0.00771669
N        7.92189652       4.91410885      25.27254312        0       0.02736848       0.00306330       0.02039281
N        6.50579695       5.05256762      25.27498463        0      -0.00208552       0.00766901       0.00753033
H        4.97508109       3.67522521      24.55123010        0      -0.00107094       0.05610452      -0.00225590
H        8.43088122       5.73503831      24.93563259        0       0.04759427       0.00681247       0.01642715
H        6.17803070       5.95257771      24.90990831        0      -0.02924106      -0.00982387      -0.01078204
