105
Lattice="11.45512985522207 0.0 0.0 5.727564927611035 9.92043345827187 0.0 0.0 0.0 31.691342951089922" Properties=species:S:1:pos:R:3:tags:I:1:forces:R:3 energy=-424.2638854980469 free_energy=-424.2638854980469 stress="0.005831781309098005 1.1757947504520416e-06 -2.630986273288727e-07 1.1757947504520416e-06 0.005883009638637304 1.6596168279647827e-06 -2.630986273288727e-07 1.6596168279647827e-06 0.006026863120496273" pbc="T T F"
Al       1.42753068       0.83148836      10.00027805        6      -0.00054204       0.00147849       0.00218360
Al       4.29133293       0.83147850      10.00032974        6      -0.00052933       0.00147339       0.00224466
Al       7.15510147       0.83148364      10.00034997        6      -0.00052944       0.00146441       0.00223729
Al      10.01888293       0.83150812      10.00038188        6      -0.00054204       0.00148192       0.00222709
Al       2.85938616       3.31163839      10.00026588        6      -0.00054301       0.00150335       0.00221064
Al       5.72321193       3.31158489      10.00022628        6      -0.00053761       0.00149262       0.00220423
Al       8.58697202       3.31159309      10.00022139        6      -0.00053384       0.00149079       0.00222407
Al      11.45074293       3.31163577      10.00029240        6      -0.00053813       0.00150603       0.00221737
Al       4.29127971       5.79178709      10.00028422        6      -0.00054226       0.00150968       0.00222165
Al       7.15509191       5.79174498      10.00028757        6      -0.00053187       0.00149932       0.00223593
Al      10.01888524       5.79174948      10.00028461        6      -0.00052084       0.00149768       0.00225109
Al      12.88260871       5.79179766      10.00039483        6      -0.00052970       0.00151337       0.00228914
Al       5.72317049       8.27187744      10.00033632        6      -0.00053395       0.00149746       0.00224943
Al       8.58701439       8.27184509      10.00029192        6      -0.00052151       0.00149191       0.00226259
Al      11.45079562       8.27184903      10.00037844        6      -0.00051644       0.00149005       0.00231526
Al      14.31452057       8.27189143      10.00042380        6      -0.00052933       0.00149895       0.00229421
Al       0.00636064       1.65717504      12.38708492        5       0.00032765       0.00096014       0.01006877
Al       2.87010556       1.65712735      12.38762862        5       0.00008547       0.00098469       0.00957726
Al       5.73389129       1.65708905      12.38792960        5       0.00041810       0.00083798       0.00957169
Al       8.59787179       1.65690459      12.38796512        5       0.00035270       0.00097869       0.00996404
Al       1.43808539       4.13781078      12.38766589        5       0.00026482       0.00095406       0.00997235
Al       4.30202546       4.13759125      12.38752018        5       0.00012147       0.00107379       0.00910724
Al       7.16594219       4.13774264      12.38784721        5       0.00034349       0.00090893       0.00918974
Al      10.02978122       4.13777138      12.38792552        5       0.00043852       0.00102889       0.00965144
Al       2.87017174       6.61789511      12.38764082        5       0.00023807       0.00127514       0.01086675
Al       5.73396977       6.61797088      12.38751212        5       0.00019216       0.00123005       0.00993495
Al       8.59789587       6.61795422      12.38770693        5       0.00046717       0.00125867       0.01024658
Al      11.46192456       6.61787218      12.38830614        5       0.00037971       0.00132422       0.01116513
Al       4.30194270       9.09770366      12.38803773        5       0.00035311       0.00113271       0.01084310
Al       7.16608507       9.09775186      12.38770113        5       0.00020457       0.00115969       0.01018809
Al      10.02984266       9.09783255      12.38861651        5       0.00037271       0.00104044       0.01046792
Al      12.89357607       9.09774918      12.38897626        5       0.00040859       0.00105080       0.01113493
Al       0.00041241       0.00459285      14.70216074        4       0.00142630      -0.00034142      -0.01013564
Al       2.86382085       0.00458492      14.70107630        4       0.00028342      -0.00070673      -0.00792008
Al       5.72804291       0.00428566      14.70220196        4       0.00163368      -0.00131967      -0.00672831
Al       8.59139143       0.00429764      14.70294335        4       0.00077349      -0.00094117      -0.00649367
Al       1.43158591       2.48451336      14.69962144        4      -0.00058422      -0.00216835      -0.01310094
Al       4.29556922       2.48433128      14.69674960        4       0.00101754      -0.00275911      -0.01790402
Al       7.16001599       2.48435245      14.69713176        4       0.00231750      -0.00225029      -0.01085333
Al      10.02398715       2.48456914      14.69864332        4       0.00238159      -0.00127588      -0.01244101
Al       2.86346125       4.96538020      14.69961119        4      -0.00007675       0.00149642      -0.01128749
Al       5.72777465       4.96539937      14.69702284        4       0.00082838       0.00048460      -0.01223231
Al       8.59200384       4.96549653      14.69768363        4       0.00220790       0.00051657      -0.00821757
Al      11.45484923       4.96545224      14.70044909        4       0.00072382       0.00111557      -0.00275266
Al       4.29554515       7.44506573      14.70210436        4      -0.00022458       0.00146478      -0.00387477
Al       7.15981864       7.44533629      14.70014548        4       0.00120812       0.00131766      -0.00862044
Al      10.02343182       7.44495187      14.70197124        4       0.00050988       0.00104871       0.00009376
Al      12.88690902       7.44508456      14.70382005        4       0.00001955       0.00125282       0.00038053
Al       1.42744959       0.82601353      17.01598240        3      -0.00165068      -0.00424867      -0.01096209
Al       4.29203087       0.82498599      17.00760805        3       0.00023188      -0.00344904      -0.01360611
Al       7.15848216       0.82391540      17.01443820        3       0.00286429      -0.00576819      -0.01147227
Al      10.02138428       0.82763578      17.01159147        3       0.00109893      -0.00134341      -0.01266524
Al       2.85777168       3.30701841      16.99843280        3      -0.00058009      -0.00038994      -0.01255879
Al       5.72341773       3.30624580      16.99458343        3       0.00167300      -0.00021647      -0.00944210
Al       8.59725276       3.30706423      16.99821976        3       0.00153076       0.00049712      -0.00442458
Al      11.45060409       3.30877191      17.00956935        3      -0.00156683       0.00020708      -0.00763167
Al       4.29158670       5.79029604      17.00919306        3      -0.00064702       0.00054862      -0.00865831
Al       7.15761106       5.79079700      17.00197286        3       0.00100454      -0.00133420      -0.00635761
Al      10.02179590       5.78588109      17.01391314        3       0.00172141      -0.00289639      -0.00413365
Al      12.88433095       5.79177025      17.01703906        3      -0.00015366       0.00065963      -0.00899181
Al       5.72586603       8.27226808      17.01417044        3       0.00131291       0.00012409      -0.01037729
Al       8.58716353       8.27059434      17.01462447        3      -0.00032952      -0.00117057      -0.00956511
Al      11.45318870       8.27127231      17.02342452        3       0.00199542      -0.00185379      -0.00468393
Al      14.31496045       8.27179159      17.02529476        3      -0.00207405      -0.00190015      -0.00427626
Al      -0.01242201       1.66930357      19.27741327        2      -0.00147810      -0.00035748       0.00886997
Al       2.86363477       1.66756800      19.26012564        2      -0.00305021      -0.00019020      -0.00083874
Al       5.73299057       1.66798479      19.24927651        2       0.00003933      -0.00015297      -0.00988396
Al       8.59418467       1.67639524      19.26511061        2       0.00174332      -0.00168587       0.00085909
Al       1.42820433       4.11589726      19.26341266        2      -0.00106945      -0.00084786       0.00556074
Al       4.28536934       4.12606281      19.25165371        2       0.00285449       0.00216447      -0.00790706
Al       7.17866894       4.11930629      19.24559315        2      -0.00348419       0.01006549       0.00717549
Al      10.02682268       4.11648426      19.32199130        2      -0.00289850       0.00022094       0.01035025
Al       2.86981759       6.61220484      19.30290138        2       0.00088223       0.00255829       0.00351041
Al       5.73523691       6.62698867      19.26705419        2       0.00148138      -0.00276962      -0.00488583
Al       8.59194868       6.61319350      19.26976981        2       0.00008767      -0.00210794      -0.00426253
Al      11.45136239       6.60668583      19.28889283        2       0.00084173       0.00417034       0.00688002
Al       4.31072967       9.10967443      19.28016681        2      -0.00065179       0.00427699       0.00620930
Al       7.16098765       9.10158147      19.31766242        2      -0.00032281       0.00259857      -0.00678724
Al      10.00483316       9.10863151      19.27961215        2       0.00116765       0.00122569       0.00661102
Al      12.88659928       9.09913153      19.33511012        2      -0.00021116       0.00068024      -0.00022758
Al      -0.01381924      -0.00973824      21.70641648        1      -0.00475438      -0.00292054       0.00859406
Al       2.86313848      -0.01546785      21.71180266        1      -0.00148921      -0.00430065       0.01253744
Al       5.71983540       0.02419425      21.67939059        1      -0.00145470       0.00392275       0.00532133
Al       8.56560430       0.03656028      21.69138723        1      -0.00523785       0.00558820       0.00666906
Al       1.42105045       2.52135261      21.70870229        1      -0.00467206       0.00193309       0.01163042
Al       4.32106325       2.48987341      21.57331457        1      -0.00684610       0.00482479      -0.00947465
Al       7.13232414       2.48920340      21.57841000        1      -0.00619948       0.00456412      -0.01312112
Al       9.95903772       2.53829356      21.78732687        1      -0.00906684       0.00562569       0.00645452
Al       2.89954364       4.96528503      21.65494348        1       0.00175357       0.00164026      -0.00752222
Al       5.76297739       4.93737284      21.54496155        1      -0.00136131       0.00261124      -0.00962854
Al       8.56422812       4.97041243      21.58665706        1       0.00168448       0.00420924      -0.01090681
Al      11.45584762       4.99275987      21.63564489        1       0.00398951       0.00500787      -0.01214360
Al       4.31461088       7.42012407      21.69881069        1      -0.00145228      -0.00012700       0.00027455
Al       7.15462270       7.40576645      21.66609190        1      -0.00105403      -0.00124436       0.00302118
Al      10.00055521       7.42453142      21.65793420        1      -0.00154104      -0.00158317      -0.00446102
Al      12.89148310       7.42726551      21.72647456        1       0.00029862      -0.00351932       0.01715775
C        5.84972254       3.83271460      24.88236338        0       0.01351600       0.02115660      -0.02667541
N        6.96029349       3.12742217      24.73039160        0      -0.01646921      -0.00159852       0.00422072
C        8.00662296       4.01133744      24.77953375        0       0.01074433      -0.00043995      -0.04357626
S        9.59220531       3.68748134      24.32600445        0       0.05379996      -0.02304951      -0.04464131
N        7.52330616       5.28558294      25.07957477        0      -0.06820666      -0.06699809       0.02467062
N        6.10546501       5.16865219      25.15029037        0       0.00729612       0.01595088      -0.00149200
H        4.84177510       3.46569327      24.69986776        0       0.00586637       0.01138784       0.05756347
H        7.85884211       6.09445271      24.54391886        0       0.03328726      -0.04234464       0.07065970
H        5.62597264       5.84972809      24.54610728        0      -0.01568760       0.02435525       0.00771343
