105
Lattice="11.45512985522207 0.0 0.0 5.727564927611035 9.92043345827187 0.0 0.0 0.0 31.691342951089922" Properties=species:S:1:pos:R:3:tags:I:1:forces:R:3 energy=-424.4996643066406 free_energy=-424.4996643066406 stress="0.006610328797250986 1.1129304766654968e-06 -2.314336597919464e-07 1.1129304766654968e-06 0.006658583413809538 1.7471611499786377e-06 -2.314336597919464e-07 1.7471611499786377e-06 0.006805149372667074" pbc="T T F"
Al       1.40733012       0.89559630       9.95033809        6       0.00009545       0.00000205       0.00117549
Al       4.27075690       0.89297184       9.96023199        6       0.00016689       0.00003302       0.00087133
Al       7.13519240       0.89233732       9.96567380        6       0.00025238       0.00008455       0.00079719
Al       9.99858698       0.89500911       9.96127854        6       0.00032277       0.00006305       0.00091048
Al       2.83598920       3.37868682       9.95882985        6       0.00017829      -0.00020593       0.00099844
Al       5.69973206       3.37557628       9.95550854        6       0.00021038      -0.00004248       0.00081182
Al       8.56575750       3.37526286       9.95669874        6       0.00026166      -0.00001386       0.00070383
Al      11.43076744       3.37790967       9.95691702        6       0.00018985      -0.00013941       0.00105937
Al       4.26835559       5.86004911       9.97072459        6       0.00025070      -0.00033572       0.00065790
Al       7.13433905       5.85774333       9.96463192        6       0.00013525      -0.00026939       0.00042747
Al      10.00066652       5.85742241       9.96874350        6       0.00006997      -0.00027401       0.00077154
Al      12.86331554       5.85992789       9.98045595        6       0.00013019      -0.00027405       0.00061249
Al       5.70270847       8.33791958       9.96754845        6       0.00022722      -0.00019639       0.00070189
Al       8.56837354       8.33634950       9.96653143        6       0.00008688      -0.00028131       0.00070055
Al      11.43345427       8.33545971       9.98078568        6       0.00012251      -0.00029048       0.00063272
Al      14.29525864       8.33779166       9.98118550        6       0.00029963      -0.00017444       0.00068460
Al       0.01659855       1.70150884      12.35479889        5      -0.00024839      -0.00038223       0.00406335
Al       2.87339658       1.70281183      12.35820391        5       0.00094111      -0.00150890      -0.00262244
Al       5.73882645       1.70327415      12.35271946        5       0.00034200      -0.00285999       0.00088529
Al       8.60674343       1.70266817      12.34529320        5       0.00064836      -0.00169702       0.00961207
Al       1.44643432       4.17916123      12.35771498        5      -0.00010093       0.00012599       0.00549032
Al       4.30854661       4.18048263      12.35267413        5      -0.00032743      -0.00039140       0.00413896
Al       7.17263994       4.18079481      12.34383992        5       0.00084378       0.00020078       0.00689496
Al      10.03826175       4.17947792      12.35067623        5       0.00094007       0.00045389       0.00665860
Al       2.88087898       6.65915833      12.36857660        5      -0.00025115       0.00153566       0.00591464
Al       5.74212948       6.66066621      12.35463981        5      -0.00039827       0.00191036       0.00631828
Al       8.60184395       6.66092086      12.35742866        5       0.00227174       0.00168286       0.00325105
Al      11.46831927       6.65809220      12.37071483        5       0.00062194       0.00181466       0.00337031
Al       4.31593058       9.14275280      12.36627509        5      -0.00122295       0.00108222       0.00470696
Al       7.17048240       9.14267449      12.36291878        5       0.00033235       0.00104223      -0.00332552
Al      10.03391972       9.14017469      12.36706817        5       0.00047992       0.00085672      -0.00552096
Al      12.90488490       9.13880820      12.37282090        5      -0.00044083       0.00165751       0.00122190
Al       0.02169139       0.04066495      14.67572630        4       0.00018552       0.00015238       0.00237943
Al       2.87261242       0.03296182      14.64847291        4       0.00165802       0.00233175       0.00663045
Al       5.74232397       0.03234749      14.64761360        4       0.00075434      -0.00007949       0.00687418
Al       8.61986035       0.03559517      14.66838891        4      -0.00024936       0.00001427       0.00247711
Al       1.44516204       2.51538824      14.66205165        4       0.00048119      -0.00034724       0.00252354
Al       4.30950553       2.51319586      14.64688012        4       0.00006575      -0.00026425       0.00271007
Al       7.17947539       2.51056175      14.64144782        4       0.00004392      -0.00014355       0.00226195
Al      10.04407359       2.51667972      14.65383432        4       0.00010492      -0.00013408       0.00228949
Al       2.88144892       4.99519973      14.66400560        4       0.00021485       0.00001274       0.00227805
Al       5.74729532       5.00102624      14.63873143        4      -0.00079727      -0.00086880       0.00269483
Al       8.61424455       4.99972025      14.64266137        4      -0.00005118      -0.00066056       0.00312801
Al      11.47755000       4.99673992      14.66580687        4      -0.00007794      -0.00011753       0.00207911
Al       4.32283620       7.48401387      14.67048522        4      -0.00018873      -0.00000041       0.00246253
Al       7.17903761       7.48380595      14.66174050        4       0.00009892       0.00011325       0.00230026
Al      10.03530838       7.47558483      14.66737202        4       0.00144501       0.00101607       0.00254260
Al      12.90898065       7.46957935      14.67381523        4      -0.00030287       0.00097411       0.00262110
Al       1.41609201       0.83959668      17.03775308        3       0.00010861       0.00486723      -0.00788681
Al       4.26418527       0.83570024      16.98017994        3      -0.00013212       0.00002057       0.00114974
Al       7.14983496       0.83376191      16.97949955        3       0.00015348       0.00007759       0.00240507
Al      10.02319290       0.84396756      17.01146671        3      -0.00080729      -0.00088542       0.00041964
Al       2.83912917       3.30597771      16.98537497        3       0.00015202       0.00002739       0.00233278
Al       5.71126205       3.31176488      16.95155798        3      -0.00429117       0.00032383      -0.00444770
Al       8.57623727       3.30455079      16.95639084        3      -0.00095233       0.00676645      -0.01306062
Al      11.44228885       3.31109607      16.98879274        3       0.00002286      -0.00105799      -0.00240712
Al       4.27713863       5.81466809      16.97489963        3      -0.00057964      -0.00113454       0.00092771
Al       7.14369904       5.81946583      16.94668077        3       0.00280012      -0.00060127      -0.00507877
Al      10.03150755       5.82849584      16.97139277        3      -0.00670107      -0.00623188       0.00080319
Al      12.87739406       5.79903347      16.99486352        3       0.00017367       0.00037854       0.00217870
Al       5.72524747       8.31145452      17.00801072        3      -0.00402387      -0.00184518      -0.00527419
Al       8.58048284       8.31514977      16.99343274        3       0.00000945      -0.00036434       0.00225053
Al      11.44361671       8.29964446      17.01211636        3      -0.00341015      -0.00531456      -0.00972059
Al      14.29807305       8.28725024      17.00422470        3       0.00297113      -0.00060746      -0.00097029
Al      -0.06521151       1.67979297      19.37676591        2      -0.00147497       0.00015186      -0.00442644
Al       2.77716718       1.65058604      19.38156862        2      -0.00087407      -0.00130025      -0.01013943
Al       5.63619622       1.66432912      19.23703091        2       0.00038866      -0.00399691      -0.00001066
Al       8.55332103       1.68144713      19.27783619        2      -0.00001247       0.00093960      -0.00344928
Al       1.35040932       4.13572037      19.27644924        2      -0.00083487       0.00072283      -0.00280480
Al       4.23148624       4.13692103      19.24134230        2      -0.00386255      -0.00022881      -0.00361950
Al       7.10131910       4.17038121      19.20499887        2       0.00419551      -0.01009188      -0.00094691
Al       9.94335135       4.13195872      19.21129367        2       0.00455609       0.00016181       0.01112908
Al       2.79798697       6.64069785      19.31803894        2       0.00373193      -0.00483649       0.01128365
Al       5.68776863       6.64794065      19.22544521        2      -0.00237321       0.00477575       0.01059594
Al       8.53526141       6.63897547      19.23950786        2      -0.00199948       0.00852756      -0.00542964
Al      11.42366979       6.64709915      19.32088521        2      -0.00073623      -0.00012439       0.00661016
Al       4.22585425       9.11108872      19.31769736        2      -0.00003389       0.00116942      -0.00479198
Al       7.11049822       9.14133929      19.36439940        2      -0.00048432      -0.00297070      -0.00307672
Al       9.96862201       9.12907923      19.34325751        2      -0.00253926      -0.00095160      -0.00291087
Al      12.82014967       9.10459768      19.32152700        2       0.00170102       0.00083202       0.02093198
Al      -0.24821648      -0.02891642      21.87476379        1      -0.00527296       0.00004811       0.00289498
Al       2.70677482       0.02686632      22.10011234        1      -0.00217731       0.00028403       0.00697122
Al       5.57881851       0.11836338      21.71963842        1       0.00011834      -0.00030110       0.00114670
Al       8.40974907       0.02295542      21.63805507        1      -0.00456835       0.00913334      -0.01250898
Al       1.21458776       2.61682497      21.89652658        1      -0.00057957      -0.00117314      -0.00085905
Al       4.14765562       2.53105226      21.62286631        1       0.00306127      -0.00030908      -0.00557773
Al       6.98172850       2.54167603      21.48220980        1       0.00480051      -0.00785202       0.00381615
Al       9.76503540       2.58928504      21.92434727        1      -0.00449162      -0.00997587       0.00274176
Al       2.73819687       4.99627706      21.64320495        1      -0.00035180      -0.00192586       0.00052970
Al       5.61699036       4.99642421      21.48812596        1       0.00099768      -0.00327415       0.00307525
Al       8.42239948       5.02476954      21.51994538        1      -0.00267640      -0.00618176      -0.00871732
Al      11.22305329       4.99638563      21.59214876        1       0.00078967      -0.00016520      -0.00177749
Al       4.14220616       7.40812120      21.70012940        1      -0.00027142       0.00146053       0.00055769
Al       6.98819873       7.46090403      21.69054652        1       0.00037226      -0.00189195       0.00007861
Al       9.82950652       7.41301112      21.60434927        1       0.00084351      -0.00173067       0.01145211
Al      12.69985042       7.43274483      22.14087362        1       0.00413876      -0.00096740      -0.01082430
C        6.11435946       3.86633272      24.69480920        0       0.03464655      -0.04675747      -0.02451651
N        6.97475613       2.89085014      24.39877854        0       0.01490882       0.07653989       0.04245167
C        8.21895928       3.36744364      24.67718311        0      -0.01340227       0.01851692      -0.01506278
S        9.71957264       2.62593800      24.36893461        0      -0.01449446      -0.01682482      -0.01394917
N        8.12860684       4.67936070      25.10319288        0      -0.00806091      -0.04374700      -0.04756562
N        6.75052880       4.96825926      25.25927806        0      -0.00448268       0.00386760      -0.01965679
H        5.04731829       3.85629380      24.48766896        0       0.00768461      -0.00439561      -0.00069153
H        8.79228160       5.07102276      25.76676635        0      -0.00196419       0.01441411       0.01169806
H        6.49281647       5.87249739      24.84587083        0      -0.00522388       0.03079745      -0.02009799
