105
Lattice="11.45512985522207 0.0 0.0 5.727564927611035 9.92043345827187 0.0 0.0 0.0 31.691342951089922" Properties=species:S:1:pos:R:3:tags:I:1:forces:R:3 energy=-424.218505859375 free_energy=-424.218505859375 stress="0.0056982883252203465 1.362524926662445e-06 -2.523884177207947e-07 1.362524926662445e-06 0.005754358135163784 1.2302771210670471e-06 -2.523884177207947e-07 1.2302771210670471e-06 0.005845582112669945" pbc="T T F"
Al       1.41786324       0.89162683       9.99964914        6       0.00030828       0.00008511       0.00008282
Al       4.28290162       0.89056328      10.00926886        6       0.00047828       0.00006041       0.00033242
Al       7.14523271       0.89006349      10.01318548        6       0.00042160       0.00007919       0.00076904
Al      10.00911038       0.89052714      10.00646302        6       0.00033630       0.00014015       0.00049548
Al       2.84828749       3.37324652      10.01108339        6       0.00038534       0.00009693       0.00038111
Al       5.71093170       3.37225837      10.01082440        6       0.00043296       0.00005560       0.00075721
Al       8.57594317       3.37142881      10.00917149        6       0.00046266       0.00001096       0.00063244
Al      11.44083400       3.37346520      10.00889064        6       0.00035039       0.00010483       0.00036695
Al       4.28015134       5.85097503      10.01764522        6       0.00039466       0.00004762       0.00089161
Al       7.14458784       5.84957844      10.01196041        6       0.00040442       0.00007297       0.00085626
Al      10.01029741       5.85109469      10.01654342        6       0.00050850       0.00012119       0.00092822
Al      12.87339140       5.85201351      10.02480543        6       0.00034319       0.00014038       0.00087752
Al       5.71315700       8.32945931      10.00880786        6       0.00028905      -0.00001949       0.00050176
Al       8.57874051       8.32920680      10.00942768        6       0.00045383      -0.00001856       0.00043049
Al      11.44313329       8.32938306      10.02214841        6       0.00042376      -0.00000857       0.00076889
Al      14.30519547       8.32991352      10.02135167        6       0.00034975       0.00001886       0.00065775
Al       0.01475398       1.69718117      12.38350575        5       0.00071312      -0.00217602       0.00628031
Al       2.87402286       1.69733693      12.38377999        5       0.00227587      -0.00068177       0.00625422
Al       5.74392764       1.69775486      12.39490710        5      -0.00150266      -0.00343353       0.00135274
Al       8.61019372       1.69574414      12.39272124        5      -0.00187464      -0.00228614       0.00517460
Al       1.44532798       4.17312785      12.39202232        5       0.00144225       0.00211547       0.00898080
Al       4.30957920       4.17606357      12.39974839        5      -0.00041571       0.00093230       0.00199584
Al       7.17994387       4.17338286      12.38190841        5      -0.00205839       0.00130704       0.01210904
Al      10.04201646       4.17241369      12.38918214        5       0.00059231       0.00231100       0.00804377
Al       2.87783171       6.65697191      12.41390444        5       0.00007384      -0.00100739       0.00140134
Al       5.74285862       6.65667778      12.40360247        5      -0.00109129      -0.00027476      -0.00322844
Al       8.60918680       6.65532441      12.40022792        5       0.00035478       0.00209244      -0.00086867
Al      11.47426668       6.65447125      12.41492886        5      -0.00039741       0.00123258       0.00257576
Al       4.30988988       9.13491896      12.40178397        5      -0.00056924      -0.00070755       0.00089065
Al       7.17098857       9.13626116      12.38960621        5       0.00053276      -0.00078354      -0.00181666
Al      10.03422277       9.13312313      12.39195162        5       0.00239214       0.00049451       0.00654239
Al      12.90563740       9.13234039      12.40935408        5      -0.00230684       0.00124764       0.00018832
Al       0.01477118       0.03207373      14.67981459        4      -0.00031088       0.00035644       0.00344643
Al       2.86440416       0.03206566      14.67904504        4       0.00080975       0.00004666       0.00194900
Al       5.73183236       0.02237371      14.68604033        4       0.00103718       0.00060720       0.00272490
Al       8.60054982       0.02640372      14.70470826        4       0.00131428       0.00065821       0.00198508
Al       1.44089027       2.50909699      14.68642476        4       0.00039440       0.00003425       0.00186842
Al       4.29593913       2.50383244      14.68246346        4       0.00047709       0.00006275       0.00140238
Al       7.17073474       2.50213598      14.69002174        4      -0.00003631      -0.00050461      -0.00668236
Al      10.04544475       2.50803098      14.68203170        4      -0.00005469      -0.00019069       0.00158667
Al       2.86908487       4.99508051      14.70794107        4       0.00113992      -0.00310452      -0.00302282
Al       5.74118461       4.99635766      14.68348798        4      -0.00092397      -0.00240979      -0.00083915
Al       8.61538288       5.00080120      14.68490553        4      -0.00131809      -0.00334011      -0.00149606
Al      11.47767826       4.99664338      14.71264474        4      -0.00459648      -0.00510972      -0.01114085
Al       4.30383776       7.47341906      14.70729302        4       0.00108611       0.00059017       0.00178036
Al       7.17770667       7.48096768      14.68506669        4       0.00008800       0.00033609       0.00208737
Al      10.04429013       7.47483910      14.71097713        4      -0.00178334       0.00040962      -0.00264912
Al      12.90465683       7.47784766      14.73058792        4      -0.00042551      -0.00052063      -0.00083485
Al       1.39687978       0.84037588      17.02502292        3       0.00095915      -0.00051821       0.00199217
Al       4.24791016       0.81649694      16.98869449        3       0.00054439       0.00037369       0.00229626
Al       7.14114669       0.81919552      17.00791376        3       0.00043975       0.00002605       0.00198845
Al      10.02442188       0.84657275      17.02262783        3      -0.00241159      -0.00641344       0.00050265
Al       2.82522626       3.29648008      17.00523494        3       0.00205754      -0.00183057      -0.00128091
Al       5.69334257       3.28442740      16.96832306        3      -0.00080498       0.00422042      -0.00007086
Al       8.58602638       3.30329451      16.96701795        3      -0.00102395       0.00111941      -0.00130627
Al      11.44518448       3.30499352      17.00830096        3      -0.00268504      -0.00061540      -0.00129742
Al       4.26906664       5.79916377      17.00228031        3       0.00060688       0.00008869       0.00092425
Al       7.14252376       5.82170422      16.96210958        3       0.00002294      -0.00179051       0.00166609
Al      10.02338297       5.81235868      17.00562780        3      -0.00058769      -0.00090081       0.00163303
Al      12.86799029       5.79493884      17.03438971        3       0.00148537       0.00299854       0.00132805
Al       5.71727635       8.30534258      17.01482484        3      -0.00091536       0.00125408      -0.00079609
Al       8.57684967       8.30076655      17.01871478        3      -0.00820673      -0.00179398      -0.01341758
Al      11.43318081       8.28112646      17.03311909        3       0.00115319       0.00003801       0.00242732
Al      14.31468631       8.28712330      17.04618449        3       0.00004947      -0.00010408       0.00187848
Al      -0.05569366       1.66702009      19.40512257        2      -0.00183529      -0.00021018       0.00130555
Al       2.75363271       1.62817995      19.35445696        2       0.00465715      -0.00120813       0.00330963
Al       5.61749539       1.61744410      19.23926606        2      -0.00041280       0.00271297      -0.00598126
Al       8.57524101       1.68393863      19.26537113        2       0.00045149       0.00095320      -0.00634399
Al       1.36475146       4.11284505      19.27723332        2      -0.00010947      -0.00084558       0.00280739
Al       4.22399799       4.12168400      19.23759767        2      -0.00122761      -0.00323469      -0.00685415
Al       7.11268526       4.14553388      19.17215543        2      -0.00058288      -0.00159916       0.00030941
Al       9.97054159       4.12509223      19.23802798        2       0.00033220      -0.00042680      -0.00054353
Al       2.81485426       6.62682123      19.33318642        2      -0.00042562      -0.00379895      -0.00350967
Al       5.69587892       6.66530661      19.23044584        2      -0.00017449      -0.00223613       0.00149165
Al       8.54835149       6.65878034      19.24064295        2      -0.00046367       0.00125583      -0.00242955
Al      11.41600563       6.63645881      19.35973655        2       0.00219698       0.00270418      -0.00779325
Al       4.25479256       9.12009980      19.36995302        2      -0.00166309      -0.00094035      -0.00915414
Al       7.11223347       9.12619775      19.35928060        2       0.00001802      -0.00055055       0.00139649
Al       9.94484464       9.09892396      19.33270173        2       0.00229510       0.00043805       0.00051655
Al      12.82945914       9.10104834      19.34031871        2      -0.00355977      -0.00433717      -0.00866425
Al      -0.32581389      -0.11416704      21.96145299        1       0.00203138       0.00150637      -0.00013891
Al       2.72442413      -0.04852956      22.19843331        1       0.00083673       0.00312692      -0.00804835
Al       5.58964171       0.05425362      21.67715576        1       0.00056179       0.00173301      -0.00473699
Al       8.36871768       0.08200848      21.63032900        1       0.00641297      -0.00718013      -0.00136964
Al       1.21690088       2.59822921      21.89345031        1       0.00085007      -0.00001084       0.00356629
Al       4.15732071       2.47424259      21.59388345        1       0.00155804       0.00199782      -0.00727244
Al       6.99445515       2.53475208      21.43845503        1      -0.00181613      -0.00297055      -0.00458018
Al       9.79514739       2.55563741      21.91999030        1      -0.00359849       0.00140534      -0.00003233
Al       2.76912232       4.95432542      21.65234007        1      -0.00146610      -0.00251379      -0.00089209
Al       5.64421029       4.96605997      21.42582247        1      -0.00137633      -0.00156644       0.00460688
Al       8.44742492       5.00380204      21.43209924        1       0.00280835       0.00008932      -0.00184736
Al      11.27595026       4.98666763      21.60506911        1      -0.00345885       0.00075082      -0.00227481
Al       4.13931117       7.37604469      21.69922619        1       0.00064970      -0.00273388       0.00304527
Al       7.04397659       7.44055608      21.65340947        1      -0.00172334      -0.00087007      -0.00031815
Al       9.88470310       7.44771304      21.68750519        1      -0.00252365      -0.00324382      -0.00682104
Al      12.70134783       7.39510004      22.06755655        1       0.00121345       0.00027323       0.00404571
C        6.08778627       3.96004074      24.53415301        0      -0.02530466       0.00651633       0.01180115
N        6.93669147       2.93763323      24.45339931        0      -0.00938911      -0.01790704      -0.00976592
C        8.18611370       3.45573342      24.57252503        0       0.02575986      -0.00209866       0.01628355
S        9.66879130       2.64447024      24.33445775        0       0.00524501      -0.00735088      -0.00055903
N        8.10025524       4.82190673      24.73104331        0       0.00970587       0.03133399       0.00559878
N        6.72665891       5.15167779      24.84624671        0       0.01223263      -0.02279496       0.01042068
H        5.01579392       3.90720618      24.36187871        0      -0.00166048       0.00266129       0.00874880
H        8.78397729       5.37699410      25.24238610        0      -0.01331339      -0.01128510      -0.02195043
H        6.44493715       5.95884157      24.27049233        0       0.00418847       0.05703332      -0.01360076
