105
Lattice="11.45512985522207 0.0 0.0 5.727564927611035 9.92043345827187 0.0 0.0 0.0 31.691342951089922" Properties=species:S:1:pos:R:3:tags:I:1:forces:R:3 energy=-424.2676696777344 free_energy=-424.2676696777344 stress="0.005880868993699551 1.5599653124809265e-06 -2.1886080503463745e-07 1.5599653124809265e-06 0.0059343744069337845 8.987262845039368e-07 -2.1886080503463745e-07 8.987262845039368e-07 0.005987025331705809" pbc="T T F"
Al       1.41747004       0.89363634       9.99554218        6       0.00034867      -0.00000738       0.00044155
Al       4.28254750       0.89240487      10.00522470        6       0.00050701       0.00003727       0.00045661
Al       7.14502686       0.89184013      10.00980159        6       0.00053742       0.00004885       0.00087135
Al      10.00889296       0.89246766      10.00320999        6       0.00044086       0.00009454       0.00059186
Al       2.84785449       3.37528661      10.00722071        6       0.00042629      -0.00001759       0.00054597
Al       5.71049949       3.37418314      10.00678129        6       0.00050496      -0.00000142       0.00068667
Al       8.57565497       3.37324552      10.00522010        6       0.00057711      -0.00001699       0.00057496
Al      11.44058375       3.37537477      10.00489328        6       0.00042275       0.00003108       0.00041802
Al       4.27976847       5.85311503      10.01448390        6       0.00046099       0.00001148       0.00082840
Al       7.14424645       5.85166567      10.00831129        6       0.00050653       0.00005038       0.00071849
Al      10.01019225       5.85306856      10.01289051        6       0.00059473       0.00004889       0.00085999
Al      12.87319539       5.85411326      10.02183093        6       0.00045775       0.00007934       0.00090167
Al       5.71284515       8.33156995      10.00581024        6       0.00038568       0.00003309       0.00063351
Al       8.57847193       8.33121009      10.00575871        6       0.00051234       0.00003790       0.00056257
Al      11.44304102       8.33128039      10.01915952        6       0.00052412       0.00002214       0.00098911
Al      14.30505818       8.33190641      10.01873493        6       0.00048361       0.00005057       0.00082268
Al       0.01534376       1.69701273      12.38490217        5       0.00094011      -0.00132940       0.00342317
Al       2.87461652       1.69799586      12.38968398        5       0.00263462      -0.00114870      -0.00120909
Al       5.74366163       1.69736837      12.39564770        5      -0.00203525      -0.00249005      -0.00280388
Al       8.61057799       1.69524784      12.39030046        5      -0.00137178      -0.00123828       0.00564160
Al       1.44575242       4.17509746      12.39378775        5       0.00154089       0.00127495       0.00607367
Al       4.30961343       4.17835535      12.39864441        5      -0.00060181      -0.00023984       0.00083528
Al       7.17957937       4.17488189      12.38061840        5      -0.00157663       0.00099405       0.01067903
Al      10.04222974       4.17416664      12.38789598        5       0.00067843       0.00178094       0.00740491
Al       2.87828415       6.66004980      12.41272890        5       0.00031819      -0.00175209       0.00218549
Al       5.74284511       6.65994330      12.40026464        5      -0.00076705      -0.00098849       0.00051057
Al       8.60853829       6.65864903      12.39831969        5       0.00101855       0.00113100       0.00015500
Al      11.47431423       6.65782798      12.41456678        5      -0.00027895       0.00056315       0.00120894
Al       4.31047555       9.13726816      12.40136445        5       0.00007485      -0.00050263       0.00136191
Al       7.17114895       9.13859670      12.39496192        5       0.00114857      -0.00052518      -0.00880172
Al      10.03588822       9.13625026      12.40143564        5       0.00159161       0.00062248      -0.00350231
Al      12.90610896       9.13455603      12.41191191        5      -0.00249052       0.00119856      -0.00234153
Al       0.01595389       0.03411650      14.68630171        4       0.00004306       0.00017518       0.00229972
Al       2.86673459       0.03364839      14.68235080        4       0.00075844       0.00002981       0.00185862
Al       5.73478474       0.02620403      14.69272158        4       0.00076093       0.00014101       0.00206206
Al       8.60308254       0.02917715      14.70862844        4       0.00116388       0.00034906       0.00142608
Al       1.44261564       2.50983587      14.68941026        4       0.00037912      -0.00013192       0.00129260
Al       4.29825465       2.50541622      14.68440046        4       0.00035616      -0.00003067      -0.00014600
Al       7.17144043       2.50318823      14.68712133        4       0.00013272      -0.00017123      -0.00721650
Al      10.04635201       2.50885599      14.68385545        4      -0.00117622      -0.00082993      -0.00067152
Al       2.87185266       4.99458612      14.70781967        4       0.00050530      -0.00171800      -0.00226050
Al       5.74174846       4.99620144      14.68386520        4      -0.00075870      -0.00177945      -0.00152662
Al       8.61547516       5.00056405      14.68447324        4      -0.00094711      -0.00233369      -0.00135259
Al      11.47668058       4.99571189      14.70893298        4      -0.00273565      -0.00229385      -0.00691590
Al       4.30693618       7.47552462      14.71028382        4       0.00077528       0.00035227       0.00147501
Al       7.17850548       7.48292046      14.68756770        4      -0.00036950      -0.00005027       0.00113983
Al      10.04358657       7.47663819      14.71021105        4      -0.00015273       0.00024263      -0.00014287
Al      12.90553169       7.47848186      14.73004447        4      -0.00048275      -0.00061033      -0.00074625
Al       1.39935426       0.84176482      17.02445625        3       0.00068722      -0.00019590       0.00225422
Al       4.24972320       0.81975770      16.98762456        3       0.00045778       0.00018871       0.00225486
Al       7.14043865       0.81847229      17.00646410        3       0.00062741       0.00063395       0.00170948
Al      10.02254073       0.84426298      17.02193980        3      -0.00033403      -0.00242354       0.00119442
Al       2.82577834       3.29377076      17.00328169        3       0.00101147      -0.00006514      -0.00003104
Al       5.69132701       3.28739010      16.96589893        3       0.00079511       0.00546854      -0.00083442
Al       8.58420363       3.30189248      16.96278962        3      -0.00126044       0.00355289      -0.00083096
Al      11.44303323       3.30268353      17.00254882        3      -0.00037330       0.00048046       0.00164218
Al       4.26987205       5.80046940      17.00224992        3       0.00014867      -0.00015219      -0.00048480
Al       7.14073650       5.82182383      16.96237678        3       0.00063453      -0.00250753       0.00105673
Al      10.02293021       5.81817665      17.00369866        3      -0.00173709      -0.00367363       0.00095106
Al      12.86707229       5.79548073      17.03128167        3       0.00123290       0.00180702       0.00136394
Al       5.71683565       8.30730048      17.01348035        3      -0.00015497       0.00045240       0.00123659
Al       8.57066320       8.29948534      17.01030847        3      -0.00177402       0.00101711      -0.00244735
Al      11.43344037       8.28482883      17.04039295        3       0.00097797      -0.00171986      -0.00113632
Al      14.30998236       8.28847223      17.04612201        3      -0.00028461      -0.00242596      -0.00055266
Al      -0.06071776       1.66947707      19.40166187        2      -0.00119805      -0.00056922       0.00348732
Al       2.75616000       1.62932651      19.35496359        2       0.00351348      -0.00116442       0.00622387
Al       5.61852970       1.62649927      19.23137241        2       0.00041869       0.00167141       0.00116178
Al       8.57204712       1.68775212      19.25779402        2      -0.00042559      -0.00028921      -0.00057621
Al       1.36138441       4.11507450      19.27615118        2       0.00020118      -0.00005545       0.00584861
Al       4.22123600       4.11955839      19.23121107        2      -0.00120607      -0.00275415      -0.00091259
Al       7.10864581       4.14902551      19.17586094        2       0.00036078      -0.00278721      -0.00010304
Al       9.96839033       4.12607654      19.23443259        2       0.00083040       0.00012283       0.00357577
Al       2.81341187       6.62141162      19.32966916        2      -0.00025566      -0.00204686      -0.00027949
Al       5.69337420       6.66188434      19.22920892        2      -0.00063632      -0.00060165       0.00420665
Al       8.54613310       6.65877592      19.23829353        2      -0.00049374       0.00202465      -0.00051851
Al      11.41434843       6.63701062      19.35379325        2       0.00200306       0.00138548      -0.00448579
Al       4.24994451       9.11966372      19.35362764        2      -0.00125306      -0.00113565      -0.00632730
Al       7.10920230       9.12693216      19.36190722        2       0.00002964      -0.00039587       0.00349077
Al       9.94424728       9.10059144      19.33262064        2       0.00121561       0.00041610       0.00217036
Al      12.82282860       9.09938359      19.32849748        2      -0.00148228      -0.00332945       0.00008809
Al      -0.32118592      -0.10652996      21.95375551        1       0.00155390       0.00085468      -0.00197583
Al       2.72006707      -0.03883382      22.19529614        1       0.00101042       0.00146530      -0.00699567
Al       5.58674753       0.06242302      21.67238757        1       0.00035422       0.00187783      -0.00378841
Al       8.37079968       0.06698679      21.61923325        1       0.00515960      -0.00278650      -0.00186109
Al       1.21859694       2.60061328      21.89175872        1       0.00005651      -0.00113170       0.00212506
Al       4.15906058       2.48378267      21.59395880        1       0.00109561       0.00115075      -0.00817839
Al       6.98940718       2.53309085      21.44065732        1       0.00074640      -0.00497847       0.00271961
Al       9.78666922       2.56211157      21.92328191        1      -0.00376983      -0.00295285      -0.00873632
Al       2.76246351       4.95785371      21.65301717        1      -0.00168932      -0.00268752      -0.00194794
Al       5.63803009       4.96739379      21.42184611        1      -0.00285531      -0.00088493       0.00866861
Al       8.44598056       5.00240151      21.43187699        1       0.00418429      -0.00071050       0.00119232
Al      11.25940099       4.99087149      21.60771597        1       0.00090787      -0.00061391      -0.00556167
Al       4.13452229       7.37008486      21.70260831        1       0.00082075      -0.00018096       0.00225050
Al       7.03591114       7.44061023      21.65730205        1      -0.00149278      -0.00041841      -0.00071924
Al       9.87128986       7.44216238      21.68148983        1      -0.00022983       0.00162349      -0.00623960
Al      12.69505564       7.40015582      22.06880095        1       0.00062182      -0.00014071       0.00284691
C        6.09513175       3.95256043      24.55569574        0       0.02237134       0.06347910       0.00577684
N        6.93458656       2.92671749      24.44286692        0       0.03680699       0.03313133       0.00351168
C        8.19297602       3.43191727      24.58248451        0      -0.06903049       0.02804960      -0.00759482
S        9.66746574       2.61154131      24.33374522        0      -0.00383199      -0.00508561       0.00574270
N        8.11773965       4.79904148      24.75297401        0       0.00887538       0.00779008       0.00751550
N        6.74594237       5.14499898      24.85887487        0       0.02703343      -0.07435172      -0.00492846
H        5.02442698       3.92209003      24.37134197        0      -0.00875538      -0.00327933       0.00635534
H        8.79962152       5.32903367      25.29470845        0      -0.03685192      -0.01375906      -0.04254232
H        6.48314033       5.96253937      24.28290422        0       0.00786027      -0.00556860       0.00566588
