105
Lattice="11.45512985522207 0.0 0.0 5.727564927611035 9.92043345827187 0.0 0.0 0.0 31.691342951089922" Properties=species:S:1:pos:R:3:tags:I:1:forces:R:3 energy=-424.4061584472656 free_energy=-424.4061584472656 stress="0.006429887376725674 1.362524926662445e-06 -2.1047890186309814e-07 1.362524926662445e-06 0.00647699274122715 1.477077603340149e-06 -2.1047890186309814e-07 1.477077603340149e-06 0.006588722579181194" pbc="T T F"
Al       1.40824324       0.89351480       9.96132421        6       0.00068879       0.00004897       0.00186769
Al       4.27195576       0.89116465       9.96917002        6       0.00069714       0.00013002       0.00172224
Al       7.13640323       0.89068683       9.97421757        6       0.00062846       0.00002627       0.00188478
Al      10.00014883       0.89298243       9.97019091        6       0.00067571      -0.00002292       0.00191595
Al       2.83746899       3.37515929       9.96861067        6       0.00065909       0.00005519       0.00187287
Al       5.70125595       3.37311239       9.96621706        6       0.00055888       0.00009238       0.00190009
Al       8.56692446       3.37284184       9.96678186        6       0.00059261       0.00000991       0.00191787
Al      11.43177242       3.37487666       9.96763575        6       0.00070265      -0.00000771       0.00192944
Al       4.26988948       5.85569264       9.97808566        6       0.00065521       0.00002072       0.00193889
Al       7.13547531       5.85381026       9.97261180        6       0.00058303       0.00009730       0.00180583
Al      10.00118461       5.85375188       9.97766474        6       0.00065779       0.00007256       0.00166605
Al      12.86411720       5.85592627       9.98695935        6       0.00068197      -0.00000853       0.00170726
Al       5.70405228       8.33422093       9.97321994        6       0.00065395       0.00001502       0.00195359
Al       8.56898790       8.33255907       9.97326451        6       0.00066516       0.00012920       0.00172828
Al      11.43405952       8.33173458       9.98574704        6       0.00067675       0.00008873       0.00165873
Al      14.29646266       8.33420460       9.98616038        6       0.00065570      -0.00005377       0.00193542
Al       0.01427716       1.70048020      12.36348572        5       0.00121270      -0.00028474       0.00118233
Al       2.87576509       1.69997452      12.35533643        5       0.00023684       0.00082181       0.00748282
Al       5.73904426       1.69668667      12.36311062        5       0.00053857       0.00168326       0.00271292
Al       8.60533067       1.69708762      12.37092935        5       0.00022894       0.00115820      -0.00822685
Al       1.44521282       4.18221890      12.37546023        5       0.00133862      -0.00079710      -0.00230403
Al       4.30576094       4.18048588      12.36617178        5       0.00126998       0.00074348      -0.00024338
Al       7.17259386       4.18133300      12.36190976        5       0.00037014      -0.00064681      -0.00147978
Al      10.03945038       4.18167084      12.37029957        5       0.00040952      -0.00107760      -0.00620902
Al       2.87867120       6.66518551      12.38804555        5       0.00044403      -0.00149891      -0.00260355
Al       5.73884879       6.66643654      12.37203316        5       0.00175901      -0.00149034      -0.00121203
Al       8.60733446       6.66535879      12.36866553        5      -0.00084646      -0.00079159       0.00184764
Al      11.47052245       6.66417417      12.38133733        5       0.00117644      -0.00091080       0.00221269
Al       4.30808790       9.14362792      12.37848900        5       0.00199352      -0.00050662       0.00211239
Al       7.17225771       9.14560677      12.35896419        5       0.00045998      -0.00038059       0.00934274
Al      10.03630429       9.14338120      12.36357325        5       0.00080029       0.00009652       0.01077616
Al      12.90083882       9.14340817      12.38384172        5       0.00121989      -0.00118950       0.00376976
Al       0.02110091       0.04018833      14.68252668        4       0.00070850       0.00010047       0.00259790
Al       2.87864208       0.04065785      14.67167332        4       0.00062641       0.00012916       0.00305922
Al       5.74447715       0.03279307      14.68382902        4       0.00063449       0.00027118       0.00317039
Al       8.61575211       0.03522510      14.68764419        4       0.00007071      -0.00005307       0.00298313
Al       1.44886725       2.51133415      14.66962734        4       0.00074048       0.00017526       0.00272069
Al       4.30768280       2.51042858      14.65603074        4       0.00037178       0.00004893       0.00307778
Al       7.17564483       2.50605451      14.65113165        4       0.00005495      -0.00008083       0.00262093
Al      10.04486262       2.50748722      14.65709149        4       0.00056373       0.00030565       0.00302108
Al       2.88284530       4.99420820      14.67484137        4       0.00047563       0.00015208       0.00313334
Al       5.74198483       4.99590612      14.65184851        4       0.00060699       0.00022087       0.00285134
Al       8.61376841       4.99574799      14.65393844        4       0.00048409       0.00037921       0.00261616
Al      11.47702271       4.99417037      14.67360756        4       0.00053187       0.00037470       0.00313182
Al       4.31915397       7.48307603      14.68632739        4       0.00009169      -0.00006801       0.00253936
Al       7.17642482       7.48575566      14.66479080        4       0.00092740       0.00033594       0.00297815
Al      10.04441704       7.48101092      14.67723851        4       0.00043617       0.00016020       0.00300206
Al      12.90778394       7.47725881      14.68858356        4       0.00057584       0.00027811       0.00324833
Al       1.41476379       0.84996489      17.01732480        3      -0.00113806      -0.00549068       0.00141943
Al       4.26966439       0.83288118      16.99878693        3      -0.00377952      -0.00114065      -0.00951099
Al       7.14858345       0.83271247      17.01110593        3      -0.00301402      -0.00789230      -0.01298771
Al      10.02266448       0.84114238      17.00725205        3       0.00046155       0.00021200       0.00201282
Al       2.83792826       3.30075602      16.99421221        3      -0.00002856       0.00193689      -0.00526673
Al       5.70114323       3.31083948      16.94614920        3       0.00078039       0.00051709       0.00286177
Al       8.57706049       3.31348166      16.93526880        3       0.00112319       0.00040761       0.00355768
Al      11.44844869       3.30433873      16.97551424        3      -0.00183812       0.00185372       0.00380885
Al       4.27820143       5.81017978      16.98367922        3       0.00077305      -0.00020511       0.00271931
Al       7.15193229       5.82063702      16.94039556        3      -0.00246909      -0.00099457       0.00514065
Al      10.01151365       5.80963483      16.98073005        3       0.00567758       0.00072801       0.00163557
Al      12.87941735       5.80515736      17.00223916        3      -0.00071458       0.00088691       0.00238892
Al       5.72059388       8.30506207      16.99905298        3       0.00113374       0.00035547       0.00323506
Al       8.58289758       8.30705675      16.99765327        3      -0.00666321       0.00189750      -0.00769830
Al      11.43332668       8.28908929      17.00833602        3       0.00347290      -0.00120377       0.00480910
Al      14.30817511       8.28276795      17.01907789        3      -0.00312872      -0.00070942      -0.00046686
Al      -0.06511907       1.67620915      19.36851231        2       0.00066282      -0.00120225       0.00363551
Al       2.77614975       1.63463731      19.32945958        2      -0.00053984       0.00063865       0.00323722
Al       5.64499133       1.65562715      19.24108224        2      -0.00366799      -0.00296511       0.00059371
Al       8.55919805       1.69728725      19.24781459        2       0.00240470      -0.00071843       0.00283202
Al       1.35337205       4.13861745      19.26265600        2       0.00118743      -0.00208681       0.00971416
Al       4.22411976       4.12716575      19.23472620        2       0.00086226       0.00068393      -0.00188684
Al       7.11808721       4.13077813      19.19187885        2      -0.00458650       0.00742060      -0.00295095
Al       9.96445170       4.12781913      19.23006325        2      -0.00051927      -0.00059859      -0.00151002
Al       2.81514166       6.62547007      19.33317268        2      -0.00266731       0.00161645      -0.00251025
Al       5.67950746       6.66673993      19.25157070        2       0.00159735      -0.00161928      -0.00689490
Al       8.53655913       6.66806257      19.22896889        2       0.00123510      -0.00243747       0.00038534
Al      11.41797056       6.64230903      19.33823071        2      -0.00040345       0.00256213      -0.00177136
Al       4.23764973       9.12181021      19.29829897        2       0.00213274       0.00146866       0.00175739
Al       7.11451696       9.12684941      19.35576983        2       0.00026870       0.00265305      -0.00159715
Al       9.96413884       9.12404772      19.33212967        2      -0.00114219      -0.00604421       0.00934346
Al      12.81813900       9.08470612      19.36040405        2      -0.00079213      -0.00031262      -0.00434153
Al      -0.31466145      -0.01843310      21.94211337        1       0.00436987      -0.00710228      -0.01250608
Al       2.70630268       0.02300485      22.14237323        1      -0.00010988      -0.00199469       0.00299067
Al       5.58928618       0.10463277      21.72176268        1      -0.00026848      -0.00476203      -0.00085020
Al       8.40957260       0.06654663      21.59560325        1      -0.00447724      -0.00354432       0.00619603
Al       1.22205966       2.60544359      21.89314751        1      -0.00068026      -0.00156327      -0.01099436
Al       4.17128347       2.52020398      21.60015242        1      -0.00572305      -0.00183929      -0.00845065
Al       6.99538124       2.50884608      21.49474926        1      -0.00014699       0.00832946      -0.00732358
Al       9.75297784       2.56951994      21.95981455        1       0.01372666       0.00544618      -0.04926028
Al       2.73938016       4.98582550      21.64900752        1       0.00107042      -0.00112339       0.00078490
Al       5.62240759       4.98393306      21.47654698        1       0.00184248      -0.00121067      -0.00170003
Al       8.42045431       5.01934526      21.46836519        1       0.00056112      -0.00456341       0.00218633
Al      11.22950230       4.99841324      21.58954785        1       0.00803154      -0.00276060      -0.00070014
Al       4.14098433       7.41411010      21.70030624        1       0.00079190       0.00032790       0.00312116
Al       7.00260735       7.45158255      21.67296695        1       0.00178763      -0.00077340       0.00141125
Al       9.83033778       7.41076610      21.65694080        1      -0.00135017      -0.00404181       0.00005469
Al      12.72039255       7.43534220      22.07947051        1      -0.00240041      -0.00184936       0.00800915
C        6.11504358       3.86686682      24.66157702        0      -0.01641812       0.05370946       0.00743342
N        6.98813057       2.89668399      24.41055112        0       0.02833018      -0.01328792      -0.00306751
C        8.22692666       3.40196113      24.64839773        0      -0.04968489      -0.02641068      -0.01561969
S        9.71082683       2.61409846      24.34596655        0      -0.01253760       0.01791311       0.04320372
N        8.11997605       4.73172925      25.00818268        0       0.01087159       0.00981347      -0.00347555
N        6.73702828       5.00495544      25.15945281        0       0.00559277      -0.03747189      -0.00718999
H        5.04915275       3.82448112      24.45415926        0      -0.00367052       0.00954609       0.00809273
H        8.77198559       5.16699700      25.65804369        0      -0.00058024       0.00146586      -0.00880718
H        6.44313512       5.90544169      24.76552509        0       0.00344428       0.01915691      -0.05454904
