105
Lattice="11.45512985522207 0.0 0.0 5.727564927611035 9.92043345827187 0.0 0.0 0.0 31.691342951089922" Properties=species:S:1:pos:R:3:tags:I:1:forces:R:3 energy=-424.32696533203125 free_energy=-424.32696533203125 stress="0.0061086066998541355 1.0472722351551056e-06 -2.654269337654114e-07 1.0472722351551056e-06 0.006162721663713455 1.7979182302951813e-06 -2.654269337654114e-07 1.7979182302951813e-06 0.006318406667560339" pbc="T T F"
Al       1.40410741       0.87902695       9.97500378        6       0.00018692       0.00031739      -0.00123640
Al       4.26861361       0.87702631       9.98437575        6       0.00014254       0.00029812      -0.00106211
Al       7.13130497       0.87706438       9.98778042        6       0.00022370       0.00027703      -0.00084383
Al       9.99420008       0.87884773       9.98210081        6       0.00017690       0.00033758      -0.00087795
Al       2.83411847       3.36060268       9.98235558        6       0.00007647       0.00064968      -0.00101035
Al       5.69899008       3.35817734       9.98614629        6       0.00005251       0.00048378      -0.00129541
Al       8.56199989       3.35855555       9.98619763        6       0.00022512       0.00044103      -0.00124093
Al      11.42617962       3.36116534       9.98340308        6       0.00028161       0.00050107      -0.00115358
Al       4.26623818       5.84018040       9.98927949        6       0.00010155       0.00072231      -0.00056268
Al       7.13253982       5.83840243       9.99001075        6       0.00012674       0.00072432      -0.00091380
Al       9.99606546       5.83915883       9.99397459        6       0.00032145       0.00058260      -0.00102572
Al      12.85898306       5.84124242       9.99710578        6       0.00029227       0.00063928      -0.00044113
Al       5.69960752       8.31875550       9.97747829        6       0.00013922       0.00063272      -0.00009122
Al       8.56497013       8.31714680       9.98312187        6       0.00022519       0.00067349      -0.00050451
Al      11.42847300       8.31752338       9.99229731        6       0.00034038       0.00060627      -0.00014655
Al      14.29004248       8.32007762       9.98862935        6       0.00027319       0.00057645       0.00013250
Al       0.00900068       1.68925466      12.35339040        5      -0.00010166      -0.00039773       0.00354734
Al       2.86855244       1.68845346      12.35419149        5       0.00002545       0.00107420       0.00397380
Al       5.72980775       1.68612254      12.36339933        5       0.00139822       0.00066719      -0.00053949
Al       8.59567189       1.68418166      12.36406802        5       0.00128744       0.00037187       0.00077789
Al       1.43951878       4.17551619      12.37098251        5       0.00072205      -0.00108184      -0.00086923
Al       4.29709995       4.17494442      12.36313088        5       0.00052823      -0.00029838      -0.00132729
Al       7.16418623       4.17183958      12.36255323        5       0.00081152      -0.00027408      -0.00026533
Al      10.03331204       4.17258081      12.36760642        5       0.00109354      -0.00079565      -0.00333232
Al       2.86984056       6.65911949      12.38542530        5       0.00105438      -0.00119561      -0.00213542
Al       5.72948563       6.65956100      12.36865637        5       0.00111807      -0.00027554      -0.00089183
Al       8.60016071       6.65925369      12.36727198        5       0.00005575      -0.00079639       0.00009452
Al      11.46573245       6.65819832      12.38161575        5       0.00075425      -0.00124309      -0.00069453
Al       4.29893055       9.13211487      12.37794708        5       0.00139114       0.00054735       0.00099865
Al       7.16814290       9.13676881      12.35849070        5      -0.00083489      -0.00034068       0.00515958
Al      10.03357211       9.13525739      12.37301822        5      -0.00068001      -0.00060999       0.00456757
Al      12.89407524       9.13334665      12.39111079        5       0.00111203      -0.00031672      -0.00246868
Al       0.01362757       0.02998347      14.66398120        4       0.00048195       0.00063023       0.00132958
Al       2.87366647       0.03206968      14.66572321        4       0.00013971       0.00050196       0.00094791
Al       5.73867546       0.02893166      14.68788894        4       0.00018905       0.00031478       0.00064515
Al       8.60567722       0.02608615      14.69689174        4       0.00030177       0.00021748       0.00010891
Al       1.44460441       2.49874776      14.65055422        4      -0.00000332       0.00048784       0.00103055
Al       4.29799203       2.49951341      14.63834930        4       0.00028049       0.00040790       0.00172081
Al       7.16435419       2.48940724      14.64199841        4       0.00096822       0.00123597       0.00078641
Al      10.04229669       2.48613474      14.63770335        4      -0.00027625       0.00320771       0.00335490
Al       2.87705939       4.98594449      14.66803521        4      -0.00004133       0.00052339       0.00049197
Al       5.73136556       4.98640819      14.64250090        4       0.00096576       0.00082181       0.00039557
Al       8.61070617       4.98720061      14.64005814        4      -0.00005921       0.00045750       0.00104683
Al      11.47520825       4.98423354      14.66774861        4      -0.00006857       0.00050248       0.00018396
Al       4.30805504       7.47363819      14.68762052        4       0.00020682       0.00072015       0.00019635
Al       7.16901556       7.48215597      14.64627028        4       0.00109686       0.00038741       0.00213523
Al      10.04201631       7.47095795      14.66886013        4       0.00003872       0.00080560       0.00089274
Al      12.90337035       7.47553472      14.68555775        4       0.00020630       0.00054914       0.00119684
Al       1.41927173       0.83411526      17.02066645        3       0.00015074       0.00033855       0.00088227
Al       4.27520609       0.82015089      16.99249029        3      -0.00219544       0.00182536      -0.00219980
Al       7.15584671       0.81935170      17.00992857        3      -0.00061625      -0.00097471      -0.00594377
Al      10.03923974       0.83134699      16.99975838        3       0.00017589       0.00076613       0.00135403
Al       2.84179752       3.28729921      16.96254170        3       0.00061577       0.00108482       0.00211206
Al       5.70463656       3.29583583      16.92506066        3       0.00042382       0.00105080       0.00252104
Al       8.58917922       3.29449127      16.92269857        3       0.00036628       0.00191014       0.00220468
Al      11.46038037       3.29027927      16.96115079        3      -0.00395782       0.00165535       0.00405370
Al       4.28786248       5.80149393      16.96833401        3       0.00027502       0.00028158       0.00151589
Al       7.15635205       5.81716301      16.91939763        3      -0.00027967      -0.00006488       0.00330897
Al      10.03553106       5.80931830      16.95202356        3      -0.00292881      -0.00341572       0.00514188
Al      12.89117731       5.80318789      16.98139807        3      -0.00028016      -0.00014306       0.00174615
Al       5.73436039       8.30083590      16.98757499        3       0.00029167       0.00078029       0.00173903
Al       8.59435823       8.30572045      16.97702472        3      -0.00328865      -0.00172437       0.00182180
Al      11.45334637       8.28236162      17.01210507        3       0.00025568       0.00064316       0.00103377
Al      14.31872018       8.28469232      17.03229842        3       0.00088952       0.00008511      -0.00116045
Al      -0.03613350       1.65754806      19.42291983        2      -0.00095809       0.00129381      -0.00736865
Al       2.79556889       1.61782311      19.34675601        2      -0.00401401      -0.00013769      -0.00966575
Al       5.65913540       1.64768240      19.23302287        2      -0.00408221      -0.00275870      -0.00343579
Al       8.57251155       1.68514042      19.24736659        2       0.00107584       0.00235072      -0.00694842
Al       1.38378761       4.11958292      19.24946900        2      -0.00203076      -0.00142964      -0.00721261
Al       4.24669039       4.10533540      19.22901274        2      -0.00064677       0.00288685      -0.00750696
Al       7.11962392       4.15213611      19.17337578        2       0.00126858      -0.00116547      -0.00200749
Al       9.98199762       4.11870303      19.20558371        2      -0.00213633      -0.00008075      -0.00408601
Al       2.83063573       6.60613069      19.30222126        2      -0.00209490       0.00320897      -0.00838882
Al       5.69369513       6.65290632      19.23852087        2       0.00152794       0.00174255      -0.00542837
Al       8.56426019       6.65446847      19.21497213        2      -0.00142852       0.00239167      -0.00900418
Al      11.42712564       6.62505685      19.30025132        2       0.00103191       0.00425459      -0.00982878
Al       4.27533494       9.13494780      19.34440992        2      -0.00016255       0.00083090      -0.00618472
Al       7.14260150       9.12357401      19.37804638        2       0.00055514       0.00285194      -0.01117284
Al       9.99055485       9.10938004      19.32939308        2      -0.00232821       0.00024312      -0.01058691
Al      12.83931663       9.06591688      19.36454286        2       0.00001625       0.00330672      -0.00963398
Al      -0.37902836      -0.03073999      22.05744178        1       0.01731248      -0.00055868      -0.01778021
Al       2.74423204      -0.05400452      22.16029110        1       0.00029339       0.00016739      -0.00209499
Al       5.61968266       0.08997319      21.72719384        1      -0.00303729       0.00093595      -0.00161125
Al       8.40616736       0.08985009      21.62153338        1      -0.00585916       0.00655978       0.00041299
Al       1.23735786       2.59152854      21.92373822        1      -0.00155798       0.00309453      -0.00149763
Al       4.16424497       2.48971511      21.57153677        1      -0.00107402       0.00075626       0.00411858
Al       6.99386305       2.53756878      21.48424470        1       0.00446108       0.00438860      -0.00020882
Al       9.76977577       2.63962668      21.97227865        1       0.00142479      -0.01330361      -0.02351328
Al       2.76416133       4.96869283      21.61669042        1       0.00099170       0.00056229       0.00131894
Al       5.63852736       4.98766046      21.47869683        1       0.00498067      -0.00147257       0.00454116
Al       8.46445333       5.04855122      21.44944441        1      -0.00609806      -0.00388042       0.01016262
Al      11.28124478       5.02077208      21.54821457        1      -0.00041629      -0.00322708       0.00161071
Al       4.15225259       7.40779824      21.64959084        1       0.00145114       0.00169989       0.00388161
Al       7.03332200       7.45115833      21.61522382        1      -0.00303804       0.00213939       0.00664139
Al       9.88394542       7.46628894      21.64642847        1       0.00340402      -0.00221608      -0.00093666
Al      12.74530470       7.42051300      22.01879961        1      -0.00245141      -0.00118004       0.01139254
C        6.06698072       3.88390786      24.70119022        0      -0.05135364      -0.01821917      -0.01734769
N        6.99480017       2.99139615      24.36453201        0      -0.00863556      -0.06774454      -0.00024761
C        8.19871235       3.51993717      24.69992931        0       0.02662465       0.00599387      -0.00043854
S        9.74437176       2.87651946      24.35334931        0      -0.02359428      -0.00911236       0.02597842
N        8.00425336       4.73154529      25.32885633        0       0.05042383       0.01573236       0.04825783
N        6.61822586       4.99724020      25.31579901        0       0.02599361      -0.00534330       0.01145800
H        5.00242983       3.79265797      24.50130475        0       0.02315628      -0.00369010       0.00485443
H        8.66150011       5.50127848      25.20910144        0      -0.02763103       0.00157106       0.03559532
H        6.37881607       5.91097053      24.91491679        0      -0.01861032       0.04717770      -0.01700239
