105
Lattice="11.45512985522207 0.0 0.0 5.727564927611035 9.92043345827187 0.0 0.0 0.0 31.691342951089922" Properties=species:S:1:pos:R:3:tags:I:1:forces:R:3 energy=-424.5382080078125 free_energy=-424.5382080078125 stress="0.006598600652068853 1.2284144759178162e-06 -2.0954757928848267e-07 1.2284144759178162e-06 0.006646684370934963 1.7117708921432495e-06 -2.0954757928848267e-07 1.7117708921432495e-06 0.006782075855880976" pbc="T T F"
Al       1.40831022       0.89316992       9.95334068        6       0.00055782       0.00043213       0.00265229
Al       4.27178952       0.89066294       9.96211218        6       0.00057575       0.00048989       0.00237228
Al       7.13629629       0.89017639       9.96735673        6       0.00054258       0.00042348       0.00244526
Al       9.99984949       0.89269735       9.96321536        6       0.00064212       0.00034340       0.00261117
Al       2.83718544       3.37569545       9.96116535        6       0.00061577       0.00029808       0.00248897
Al       5.70099000       3.37298063       9.95808932        6       0.00049022       0.00041569       0.00246615
Al       8.56686843       3.37273132       9.95879213        6       0.00052119       0.00035078       0.00253095
Al      11.43180479       3.37507213       9.95951040        6       0.00060850       0.00030815       0.00264554
Al       4.26963241       5.85670201       9.97179171        6       0.00055130       0.00020645       0.00235817
Al       7.13536552       5.85461910       9.96573514        6       0.00050584       0.00025024       0.00230947
Al      10.00143513       5.85427887       9.97004036        6       0.00055469       0.00032544       0.00242100
Al      12.86425901       5.85673982       9.98092243        6       0.00057910       0.00020384       0.00233788
Al       5.70389868       8.33499756       9.96819842        6       0.00054757       0.00020455       0.00245316
Al       8.56915696       8.33334274       9.96732634        6       0.00051322       0.00028880       0.00234798
Al      11.43427836       8.33247614       9.98073906        6       0.00055726       0.00029257       0.00219389
Al      14.29637363       8.33491157       9.98146333        6       0.00062542       0.00017172       0.00234781
Al       0.01565537       1.69974632      12.36432218        5      -0.00012987       0.00012652      -0.00523396
Al       2.87370668       1.70071489      12.35768078        5       0.00132317      -0.00014969       0.00039851
Al       5.73963796       1.69867955      12.35596249        5       0.00009555       0.00006193       0.00156812
Al       8.60657725       1.69928597      12.36130664        5       0.00047912      -0.00078764      -0.00337829
Al       1.44582838       4.17926167      12.36710715        5       0.00045016       0.00048933      -0.00091216
Al       4.30662860       4.18002753      12.35883587        5       0.00122878      -0.00002564      -0.00026430
Al       7.17287544       4.18064845      12.35836918        5       0.00044267      -0.00039125      -0.00764913
Al      10.03947771       4.17943027      12.36060781        5       0.00025433       0.00052197      -0.00213471
Al       2.87983911       6.66063052      12.37929192        5       0.00019978       0.00182055      -0.00195962
Al       5.74032472       6.66299317      12.36628049        5       0.00079255       0.00092056      -0.00346953
Al       8.60462511       6.66249630      12.36608631        5       0.00063179       0.00072481      -0.00404200
Al      11.46965932       6.65952745      12.37796008        5       0.00059948       0.00174621      -0.00269550
Al       4.31355009       9.14342943      12.37902067        5      -0.00134877      -0.00062255      -0.00857554
Al       7.17017888       9.14373022      12.36225735        5       0.00130871      -0.00011739       0.00171937
Al      10.03416657       9.14043378      12.36512892        5       0.00128837       0.00090752       0.00396639
Al      12.90346781       9.14046465      12.37731135        5       0.00012499      -0.00002985       0.00037103
Al       0.02162585       0.03969957      14.67783457        4       0.00066529       0.00065747       0.00400294
Al       2.87539045       0.03626504      14.65970538        4       0.00092063       0.00079945       0.00479639
Al       5.74262717       0.03189289      14.66346419        4       0.00076882       0.00052898       0.00452115
Al       8.61756718       0.03470215      14.67564518        4       0.00003123       0.00043306       0.00419406
Al       1.44655498       2.51246620      14.66328408        4       0.00097508       0.00017243       0.00456380
Al       4.30860505       2.51094679      14.64949567        4       0.00047204       0.00037973       0.00425612
Al       7.17744511       2.50819318      14.64415621        4       0.00022795       0.00024837       0.00414068
Al      10.04395103       2.51263581      14.65371276        4       0.00054083       0.00041189       0.00451603
Al       2.88201073       4.99382985      14.66707517        4       0.00056360       0.00043835       0.00399039
Al       5.74536965       4.99800245      14.64311378        4      -0.00015629      -0.00013613       0.00474351
Al       8.61317639       4.99711677      14.64617229        4       0.00054333       0.00034150       0.00458389
Al      11.47665162       4.99469975      14.66745507        4       0.00035935       0.00051523       0.00403484
Al       4.32101836       7.48257901      14.67676506        4       0.00026253       0.00045422       0.00406656
Al       7.17805728       7.48358722      14.66248267        4       0.00067681       0.00070841       0.00406052
Al      10.03853146       7.47765185      14.67026671        4       0.00085207       0.00077690       0.00416913
Al      12.90795659       7.47211810      14.67912275        4       0.00038074       0.00093554       0.00421707
Al       1.41618057       0.83646565      17.03880753        3      -0.00180572       0.00945911      -0.02308029
Al       4.26632657       0.83496386      16.98609154        3       0.00020190       0.00055093       0.00103970
Al       7.14971948       0.83297325      16.98920453        3       0.00019303      -0.00000559       0.00316101
Al      10.02507626       0.84321437      17.01276975        3      -0.00381371      -0.00096953      -0.00790151
Al       2.84008095       3.30428324      16.98966111        3      -0.00054362      -0.00077944       0.00002247
Al       5.70784435       3.31136255      16.95203264        3      -0.00136033       0.00086403      -0.00230185
Al       8.57607451       3.30937842      16.95266974        3       0.00169903       0.00230280      -0.00751421
Al      11.44454641       3.30982385      16.98933641        3      -0.00206956      -0.00174326      -0.00950247
Al       4.27863027       5.81097798      16.97961311        3       0.00016855      -0.00066727       0.00127102
Al       7.14779776       5.81857875      16.94744654        3      -0.00031362      -0.00020734       0.00103454
Al      10.01696017       5.81556080      16.97954077        3       0.00179875       0.00044223       0.00125984
Al      12.87875667       5.80028030      16.99812385        3      -0.00133551       0.00198988       0.00129502
Al       5.72574479       8.30959529      17.00704523        3      -0.00391399      -0.00317335      -0.00754594
Al       8.58111481       8.31152085      17.00279850        3      -0.00197091      -0.00401777      -0.00866363
Al      11.43826432       8.29349653      17.00834415        3       0.00076513      -0.00063477       0.00235083
Al      14.30352744       8.28465515      17.01055482        3       0.00051143       0.00009532      -0.00097741
Al      -0.06549446       1.67965255      19.36761160        2      -0.00056349       0.00045549       0.00101428
Al       2.77894819       1.64571509      19.35539756        2      -0.00127968       0.00010103      -0.00516986
Al       5.64411148       1.66486334      19.23891234        2      -0.00127190      -0.00440000       0.00109651
Al       8.55554562       1.69144483      19.26307348        2       0.00134840      -0.00025933      -0.00082874
Al       1.35130723       4.13674046      19.26394368        2       0.00149519       0.00067044       0.00780982
Al       4.23034177       4.13384323      19.23473672        2      -0.00165841       0.00083753       0.00057079
Al       7.11182055       4.15168686      19.20622408        2      -0.00024301       0.00003771      -0.00034258
Al       9.95218603       4.13080996      19.22085386        2       0.00239421       0.00044949       0.00694847
Al       2.80630094       6.63372823      19.31499758        2       0.00189784      -0.00166277       0.01346690
Al       5.68512107       6.65491446      19.23344645        2      -0.00003387       0.00192649       0.01030740
Al       8.53530354       6.64837080      19.23199984        2       0.00060582       0.00478242       0.00610086
Al      11.42258080       6.64296678      19.32473699        2      -0.00261523       0.00194714       0.00508669
Al       4.23219522       9.11720523      19.30466983        2       0.00116330       0.00103906       0.00115274
Al       7.11295533       9.13605288      19.35344251        2      -0.00030446      -0.00206344       0.00706716
Al       9.96585065       9.13120039      19.33071013        2      -0.00109198      -0.00595191       0.00779677
Al      12.81887870       9.09516020      19.33036067        2       0.00067629       0.00283901       0.00497828
Al      -0.26157546      -0.02220894      21.88737866        1      -0.00393467      -0.00066746       0.00358576
Al       2.71140609       0.02644619      22.10274351        1      -0.00194781      -0.00015323       0.00701197
Al       5.58690156       0.11095692      21.71651586        1       0.00010088      -0.00166430       0.00098440
Al       8.41429761       0.03845187      21.61586772        1      -0.00420064       0.00831325      -0.00492121
Al       1.22823673       2.60899644      21.88252444        1      -0.00174349       0.00057019      -0.00135665
Al       4.16528323       2.52818262      21.61789847        1      -0.00193104      -0.00024707      -0.01117065
Al       6.99337444       2.52899978      21.49287020        1       0.00152213      -0.00223021      -0.00208111
Al       9.76811104       2.57327567      21.92765076        1      -0.00263591       0.00052067      -0.00037865
Al       2.74195435       4.99515411      21.64893721        1       0.00012305      -0.00184000       0.00041031
Al       5.62687960       4.99031232      21.48513730        1      -0.00191494      -0.00202469       0.00116856
Al       8.42248753       5.01784177      21.50491370        1      -0.00071646      -0.00206389      -0.00476932
Al      11.22546814       4.99802932      21.59793698        1       0.00535921      -0.00018919      -0.00177945
Al       4.14606137       7.40977259      21.70251022        1      -0.00043328       0.00190809       0.00210078
Al       6.99535021       7.45725578      21.68680144        1       0.00129243      -0.00025597      -0.00021073
Al       9.83261762       7.41409269      21.62846836        1      -0.00105192      -0.00381297       0.00448173
Al      12.71070745       7.43780042      22.09430461        1       0.00012063      -0.00168375       0.00332261
C        6.10778187       3.85951379      24.68579242        0      -0.00658038       0.01576922       0.00024832
N        6.98680833       2.89644049      24.42276200        0      -0.00320219      -0.01163484      -0.00566582
C        8.22299677       3.39906315      24.67705696        0      -0.00861979      -0.00250202      -0.00578116
S        9.71089512       2.63234404      24.36179620        0      -0.00365761       0.00188927       0.00002601
N        8.10838550       4.71873840      25.07135881        0       0.00315468       0.01154954      -0.00554624
N        6.72053395       4.98727134      25.21628632        0       0.01952714       0.00698799      -0.01866850
H        5.04086503       3.81104804      24.48540772        0       0.00332666       0.00849622       0.00134775
H        8.75471068       5.14752013      25.73131593        0      -0.00783287      -0.01591913      -0.02052506
H        6.44942694       5.89486178      24.81601689        0       0.00232985      -0.03123561      -0.02838448
