105
Lattice="11.45512985522207 0.0 0.0 5.727564927611035 9.92043345827187 0.0 0.0 0.0 31.691342951089922" Properties=species:S:1:pos:R:3:tags:I:1:forces:R:3 energy=-424.4077453613281 free_energy=-424.4077453613281 stress="0.005422484595328569 7.203780114650726e-07 -2.1513551473617554e-07 7.203780114650726e-07 0.005486309062689543 1.789536327123642e-06 -2.1513551473617554e-07 1.789536327123642e-06 0.0056681386195123196" pbc="T T F"
Al       1.41090484       0.85482672      10.01574984        6      -0.00002918       0.00078495      -0.00439788
Al       4.27590895       0.85387940      10.02261007        6      -0.00008392       0.00078275      -0.00504782
Al       7.13903021       0.85375271      10.02307711        6      -0.00013605       0.00078257      -0.00453118
Al      10.00150317       0.85474608      10.01978614        6      -0.00002530       0.00077612      -0.00448858
Al       2.84232850       3.33681124      10.02057523        6      -0.00006074       0.00057798      -0.00461897
Al       5.70719876       3.33560434      10.02254490        6      -0.00015383       0.00057970      -0.00450444
Al       8.57098940       3.33588669      10.02523083        6      -0.00024625       0.00055063      -0.00503653
Al      11.43373567       3.33762048      10.02210679        6      -0.00009637       0.00056252      -0.00458603
Al       4.27419724       5.81755645      10.02555882        6      -0.00004051       0.00038282      -0.00509772
Al       7.14002822       5.81639746      10.02871980        6      -0.00018957       0.00041204      -0.00553348
Al      10.00382277       5.81735439      10.03179212        6      -0.00023328       0.00032872      -0.00555731
Al      12.86599281       5.81770855      10.03101909        6      -0.00004837       0.00042866      -0.00536340
Al       5.70631824       8.29515151      10.02029692        6       0.00000634       0.00053114      -0.00571850
Al       8.57227763       8.29468755      10.02537732        6      -0.00016009       0.00041182      -0.00616520
Al      11.43519658       8.29492906      10.02976434        6      -0.00010125       0.00047513      -0.00626311
Al      14.29731517       8.29582276      10.02438932        6      -0.00003164       0.00056345      -0.00541222
Al       0.00120574       1.66835947      12.38138269        5       0.00115313       0.00072648       0.00198759
Al       2.86643115       1.66836569      12.37579508        5      -0.00058394       0.00138291       0.00319966
Al       5.73211102       1.66895213      12.38491699        5      -0.00038502       0.00012789       0.00026237
Al       8.59712455       1.66895322      12.38732411        5      -0.00015595      -0.00025765      -0.00060019
Al       1.43461197       4.14624188      12.38646544        5       0.00047416       0.00086064       0.00075574
Al       4.29833315       4.14437277      12.38431766        5      -0.00055361       0.00253962      -0.00072695
Al       7.16492908       4.14625831      12.38505009        5      -0.00066168       0.00088251       0.00106576
Al      10.02809808       4.14652774      12.39324780        5       0.00056706       0.00048512      -0.00409756
Al       2.86823278       6.62346490      12.38969722        5      -0.00099520       0.00361524       0.00084363
Al       5.73184385       6.62398356      12.38160421        5      -0.00098972       0.00326942       0.00149718
Al       8.59647669       6.62314440      12.38765297        5      -0.00039635       0.00321072       0.00203887
Al      11.45888748       6.62355449      12.39231160        5       0.00107927       0.00303461       0.00281935
Al       4.29842251       9.10501020      12.37629345        5       0.00062330       0.00272337       0.00385016
Al       7.16083253       9.10347954      12.37009665        5      -0.00046883       0.00272587       0.00497463
Al      10.02549588       9.10148680      12.37518182        5       0.00066474       0.00258225       0.00631713
Al      12.89064106       9.10408075      12.38200064        5       0.00114967       0.00213041       0.00397330
Al      -0.00004867       0.01295051      14.66281166        4       0.00073397       0.00054962       0.00036978
Al       2.85978317       0.00822415      14.64595750        4       0.00190805       0.00178481       0.00429372
Al       5.73433358       0.00170181      14.65761991        4       0.00005128       0.00423052       0.00604520
Al       8.60073569       0.00345977      14.66535550        4      -0.00034761       0.00311100       0.00597488
Al       1.42432521       2.49327071      14.67124070        4       0.00204190       0.00041949      -0.00181869
Al       4.29273891       2.49281075      14.66596831        4       0.00023999       0.00000034      -0.00170693
Al       7.17103908       2.48807684      14.66768119        4      -0.00179771      -0.00097854      -0.00214142
Al      10.02739751       2.49594119      14.67986811        4       0.00121000      -0.00405683      -0.00476639
Al       2.85870174       4.97935158      14.66994369        4       0.00235471      -0.00169769       0.00126547
Al       5.72592811       4.97955242      14.65828217        4      -0.00010624      -0.00049667      -0.00117922
Al       8.60309147       4.97532163      14.66992951        4      -0.00010233       0.00047036      -0.00243078
Al      11.46246634       4.97535669      14.67360073        4       0.00114158      -0.00017351       0.00032236
Al       4.29441461       7.46136857      14.66702072        4       0.00160717      -0.00014943       0.00211891
Al       7.16050029       7.45758913      14.66560585        4       0.00018133       0.00115268      -0.00171809
Al      10.03422778       7.44959212      14.68307582        4      -0.00014135       0.00094601      -0.00201871
Al      12.89166650       7.45652486      14.68578165        4       0.00047841       0.00066503      -0.00146694
Al       1.41395673       0.84692244      16.98167709        3       0.00182942      -0.01484724       0.00037580
Al       4.27171198       0.82107465      16.96791439        3       0.00095175      -0.00133774      -0.00615636
Al       7.16581584       0.82053408      16.98644483        3      -0.00253071      -0.00862393      -0.00345395
Al      10.03100891       0.82913500      17.00605843        3      -0.00039933      -0.00405683      -0.00637621
Al       2.85103860       3.30985840      16.98349349        3       0.00030766      -0.00322164      -0.00914026
Al       5.72412427       3.30520245      16.95122172        3      -0.00582934      -0.00403972      -0.00351263
Al       8.59460288       3.30305998      16.96484891        3       0.00123463      -0.00309882      -0.00525895
Al      11.44326821       3.30025096      16.99576339        3       0.00272926      -0.00070875      -0.00543746
Al       4.28069045       5.81014142      16.97635001        3       0.00118816      -0.00159662      -0.00112461
Al       7.16005056       5.80136716      16.93668676        3      -0.00029033       0.00111430      -0.00061895
Al      10.04161671       5.77484626      16.98387901        3      -0.00162368       0.00430960      -0.00259225
Al      12.89044558       5.79171234      17.00399957        3       0.00024420       0.00305555      -0.00432141
Al       5.71863153       8.28931338      16.99631140        3       0.00440954       0.00177244      -0.00760564
Al       8.59307320       8.28609663      16.97146774        3      -0.00223624       0.00184678      -0.00276589
Al      11.46181557       8.28054923      16.98973917        3       0.00334316       0.00260353       0.00200397
Al      14.32999021       8.27548340      17.00769073        3      -0.01241357       0.00515477       0.00565301
Al      -0.00985991       1.64914836      19.35652816        2      -0.00167428       0.00020201       0.00975901
Al       2.80574382       1.63001441      19.28572432        2       0.00355546      -0.00036628       0.01488469
Al       5.66200837       1.60877866      19.21769311        2       0.00351816       0.00925975      -0.00249945
Al       8.60561725       1.64676994      19.25133667        2      -0.00462699       0.00388627       0.00858182
Al       1.40864444       4.09300385      19.25220421        2       0.00080832       0.00482762       0.00841511
Al       4.27354498       4.12840443      19.23084152        2      -0.00100597      -0.00299988      -0.00876453
Al       7.15712071       4.12830413      19.16888347        2      -0.00826738       0.01057021       0.01427161
Al       9.99586960       4.09973311      19.27046009        2       0.00075954       0.00253969      -0.00428812
Al       2.84595620       6.64372518      19.33001548        2      -0.00289367      -0.01033947      -0.00013600
Al       5.73531970       6.64311894      19.23702843        2      -0.00332926      -0.00474936      -0.00442562
Al       8.58221583       6.65138592      19.20949866        2       0.00055216      -0.00331570      -0.00468633
Al      11.46593720       6.65617023      19.27309749        2      -0.00550357      -0.01331240       0.01572140
Al       4.29528140       9.10997023      19.34137224        2       0.00028694       0.00375472      -0.00276101
Al       7.16053576       9.11297847      19.29854164        2      -0.00115134       0.00305727       0.00564233
Al      10.01674969       9.09837937      19.28753620        2      -0.00120258      -0.00067655       0.01341853
Al      12.89448551       9.10465858      19.40907193        2      -0.00743964      -0.00606642      -0.00328717
Al      -0.17515578      -0.05274575      21.91762575        1      -0.00980449       0.00319709       0.00223669
Al       2.80544212      -0.07558647      21.96405556        1      -0.00195642       0.00384613       0.00685030
Al       5.65419208       0.07852271      21.75741814        1       0.00257703      -0.00802758      -0.00783462
Al       8.45176356       0.14987126      21.77408989        1      -0.00064890      -0.01793231      -0.01762437
Al       1.25154973       2.57808595      21.95230880        1       0.00864919      -0.00805161      -0.02162867
Al       4.20152884       2.45949486      21.54502356        1      -0.00974445       0.01128827       0.01238845
Al       7.03309733       2.51266153      21.43056003        1      -0.00485125       0.01703105       0.01139787
Al       9.80366337       2.59031421      21.87194260        1       0.00396430       0.01652033       0.01085289
Al       2.86543971       4.93177348      21.57552924        1      -0.01353141       0.00777015       0.01449622
Al       5.70015583       4.96298987      21.49421864        1      -0.00116644       0.00134915      -0.00012137
Al       8.51079448       5.06222809      21.45343704        1       0.00248532      -0.01866356       0.00458298
Al      11.44261879       4.98964374      21.49144035        1      -0.01947217       0.01111752       0.01430343
Al       4.24821824       7.42958698      21.65104752        1      -0.00939636      -0.00778953      -0.00197099
Al       7.10579370       7.42064653      21.61693776        1      -0.00288480       0.00082199       0.00037889
Al      10.01001220       7.42979917      21.59874248        1      -0.00261363       0.00295714       0.00409545
Al      12.85443420       7.36774891      22.11868429        1      -0.00883194       0.00891311      -0.01624166
C        5.94729158       3.88613553      24.78456416        0       0.05656005      -0.00229814      -0.05040639
N        6.95148904       3.06438924      24.47547748        0       0.02209955       0.06506976       0.01640993
C        8.09983728       3.77184238      24.63124553        0       0.06726062      -0.01055590       0.00581721
S        9.69689336       3.31967002      24.23916034        0      -0.06755441      -0.04519904      -0.00069132
N        7.81089926       5.01679710      25.18882124        0      -0.00761457      -0.00355863       0.02874237
N        6.40177552       5.10827306      25.24780486        0      -0.07425786      -0.08368704       0.00603318
H        4.89856566       3.65079209      24.62370968        0       0.00087048       0.04681795       0.05523662
H        8.28035679       5.83765993      24.80196239        0       0.07765773       0.06306025      -0.01375880
H        5.99538440       5.97008298      24.86565609        0       0.02055797      -0.07334623      -0.02004177
