105
Lattice="11.45512985522207 0.0 0.0 5.727564927611035 9.92043345827187 0.0 0.0 0.0 31.691342951089922" Properties=species:S:1:pos:R:3:tags:I:1:forces:R:3 energy=-424.5377502441406 free_energy=-424.5377502441406 stress="0.006270459853112698 8.987262845039368e-07 -1.9278377294540405e-07 8.987262845039368e-07 0.006325260270386934 1.7397105693817139e-06 -1.9278377294540405e-07 1.7397105693817139e-06 0.00648465845733881" pbc="T T F"
Al       1.40153389       0.89150237       9.95608955        6       0.00058592       0.00021789      -0.00193067
Al       4.26570381       0.88880214       9.96811217        6       0.00054187       0.00020008      -0.00180838
Al       7.12854208       0.88881823       9.97324159        6       0.00058339       0.00018580      -0.00192010
Al       9.99132839       0.89128783       9.96644632        6       0.00059919       0.00020544      -0.00185567
Al       2.83040862       3.37445471       9.96582405        6       0.00058286       0.00029462      -0.00204429
Al       5.69516469       3.37075169       9.96846049        6       0.00051292       0.00024509      -0.00248448
Al       8.55882385       3.37106692       9.96825305        6       0.00062222       0.00022639      -0.00243423
Al      11.42365080       3.37432088       9.96572859        6       0.00062106       0.00027483      -0.00226212
Al       4.26274246       5.85417079       9.97573121        6       0.00052685       0.00048009      -0.00183383
Al       7.12949182       5.85194769       9.97406479        6       0.00052395       0.00036695      -0.00209873
Al       9.99384629       5.85221384       9.97788324        6       0.00063403       0.00036006      -0.00205562
Al      12.85672575       5.85529628       9.98535675        6       0.00060902       0.00036300      -0.00165302
Al       5.69682660       8.33275202       9.96468568        6       0.00053192       0.00031299      -0.00120195
Al       8.56260327       8.33088248       9.96862984        6       0.00058566       0.00032942      -0.00139580
Al      11.42667323       8.33101387       9.98182709        6       0.00063202       0.00032954      -0.00116712
Al      14.28755867       8.33411363       9.97953766        6       0.00064644       0.00027613      -0.00119295
Al       0.01021447       1.69679790      12.34812421        5       0.00114631       0.00010740       0.00211189
Al       2.87037700       1.69954050      12.34787836        5       0.00121063      -0.00171147       0.00051977
Al       5.73581090       1.69763101      12.34657341        5      -0.00021286      -0.00121305       0.00414552
Al       8.60159872       1.69494923      12.35185106        5       0.00082449      -0.00049380       0.00447915
Al       1.44385018       4.18196092      12.35553694        5       0.00056438      -0.00001886       0.00590699
Al       4.30186109       4.18272590      12.34436294        5       0.00112026      -0.00000865       0.00689026
Al       7.16924444       4.18111544      12.34525626        5       0.00093353      -0.00003946       0.00490485
Al      10.03902577       4.18009373      12.34608157        5       0.00018703       0.00063585       0.00731274
Al       2.87632571       6.66495345      12.37194403        5       0.00045102       0.00088978       0.00438772
Al       5.73613719       6.66853909      12.35618205        5       0.00068322       0.00066682       0.00505334
Al       8.60351948       6.66663744      12.35599546        5       0.00075298       0.00095533       0.00345692
Al      11.47075989       6.66425692      12.37215832        5      -0.00034306       0.00105658       0.00324065
Al       4.30447086       9.14222421      12.37351929        5       0.00071925      -0.00004218       0.00153150
Al       7.16841305       9.14608071      12.36041339        5       0.00152679      -0.00022262      -0.00128885
Al      10.03283398       9.14312967      12.37337498        5       0.00070748       0.00035137      -0.00293919
Al      12.89777209       9.14182150      12.37854389        5       0.00063667       0.00026387       0.00281342
Al       0.02423769       0.04012583      14.66860007        4      -0.00022907      -0.00007654      -0.00060267
Al       2.87774075       0.04277742      14.67142798        4      -0.00027200      -0.00069067      -0.00193110
Al       5.74013672       0.03299579      14.68533485        4       0.00028657       0.00020932      -0.00785373
Al       8.60992728       0.03091741      14.69292962        4       0.00136655       0.00073472      -0.00382657
Al       1.44824112       2.50160803      14.64318616        4      -0.00018864       0.00167741       0.00103476
Al       4.30152858       2.50404444      14.63104822        4       0.00096096       0.00102211       0.00033386
Al       7.16899243       2.49755241      14.63301271        4       0.00081402       0.00091214      -0.00041012
Al      10.04627518       2.50323090      14.63811398        4       0.00010818       0.00061950      -0.00017611
Al       2.88170356       4.99368440      14.66330466        4       0.00007285      -0.00018625      -0.00108900
Al       5.73889438       4.99485226      14.63393966        4       0.00074254       0.00048583      -0.00072352
Al       8.61414123       4.99508508      14.63239019        4       0.00033397       0.00039561      -0.00052732
Al      11.47834366       4.99129507      14.66181271        4       0.00034344       0.00030967      -0.00070476
Al       4.31309310       7.48324497      14.68757787        4       0.00144615      -0.00058778      -0.00360816
Al       7.17863142       7.49227660      14.64771745        4       0.00021737      -0.00113223       0.00003965
Al      10.04392132       7.48284944      14.66827618        4      -0.00140836      -0.00181243      -0.00209953
Al      12.90788194       7.48358149      14.68926189        4       0.00026581      -0.00258750      -0.00458512
Al       1.40576985       0.82683381      17.01870672        3       0.00359284       0.00639067      -0.00143711
Al       4.26369399       0.82720352      16.98506832        3       0.00074117       0.00103672      -0.00122645
Al       7.15223076       0.82042251      16.99037293        3      -0.00020604       0.00131173      -0.00216235
Al      10.04137988       0.84067944      17.00577535        3      -0.00254636      -0.00030449      -0.00132491
Al       2.84167266       3.28778478      16.96678814        3      -0.00012406       0.00035611      -0.00058866
Al       5.70500480       3.30352453      16.92376787        3       0.00061424       0.00023358       0.00020282
Al       8.58334112       3.30951525      16.92034769        3       0.00050368       0.00029633      -0.00023231
Al      11.44400722       3.29698590      16.96878448        3       0.00066369       0.00033479      -0.00058372
Al       4.28946064       5.79330242      16.96834974        3       0.00046257       0.00103690      -0.00037369
Al       7.15253123       5.81706038      16.92618912        3       0.00020384       0.00030747       0.00008180
Al      10.01705371       5.79739745      16.96074948        3       0.00096766       0.00106552      -0.00044666
Al      12.88322125       5.80121143      16.98360104        3      -0.00025150      -0.00051225      -0.00105015
Al       5.73753678       8.30650694      16.99745793        3      -0.00100213      -0.00054918      -0.00059151
Al       8.58126808       8.30193667      16.98722695        3      -0.00004226      -0.00048165      -0.00198470
Al      11.44390127       8.27853505      16.98587813        3       0.00037470       0.00039617      -0.00004522
Al      14.32869144       8.28201812      17.01983535        3       0.00033870       0.00136480      -0.00323377
Al      -0.05736894       1.67176108      19.43031793        2       0.00048504       0.00057839      -0.00322174
Al       2.76756769       1.62726325      19.33817753        2       0.00443239       0.00576122       0.01367061
Al       5.64147110       1.64214290      19.24544885        2      -0.00138157       0.00052436      -0.00440077
Al       8.56401794       1.70771548      19.22631171        2      -0.00226136      -0.00914240       0.01587460
Al       1.36003745       4.12048573      19.23716970        2       0.00122058       0.00137870       0.00952623
Al       4.23318339       4.12330493      19.21601286        2       0.00017511       0.00058853       0.00291702
Al       7.12604300       4.13801662      19.17645600        2      -0.00618552       0.00954214      -0.00599268
Al       9.96294881       4.13080182      19.22040023        2      -0.00155504       0.00021282      -0.00317180
Al       2.82491730       6.62094750      19.28824713        2      -0.00429566      -0.00053125       0.00597619
Al       5.68560168       6.67367514      19.24122808        2       0.00110938      -0.00786394      -0.00132358
Al       8.54407611       6.66164714      19.22936481        2      -0.00000145      -0.00216097      -0.00583493
Al      11.41351727       6.64346941      19.29158880        2       0.00193626      -0.00015636       0.00176476
Al       4.26115057       9.14344341      19.34343103        2      -0.00458424      -0.00448579       0.00053529
Al       7.13032404       9.13175019      19.38033937        2      -0.00098838       0.00155779       0.00202335
Al       9.96710794       9.11480477      19.31128455        2       0.00093234      -0.00199551       0.01014813
Al      12.81876674       9.07476776      19.29617676        2       0.00601902       0.00957300       0.01548086
Al      -0.38439439      -0.03154242      22.03616969        1       0.01338086      -0.00671156      -0.01552448
Al       2.71529212      -0.04158149      22.21071260        1      -0.00042706       0.00255061      -0.01250498
Al       5.59049817       0.10853145      21.71274026        1      -0.00102386      -0.00043764      -0.00033475
Al       8.37014360       0.11733837      21.58431978        1      -0.00140758      -0.01025733       0.00156428
Al       1.22451018       2.61123004      21.91027886        1      -0.00181857       0.00189687      -0.00100249
Al       4.15412301       2.50828141      21.57478020        1      -0.00611975       0.00164641      -0.00181390
Al       6.99268344       2.55064834      21.47175269        1       0.00074936       0.00196193       0.00917165
Al       9.75567609       2.59525883      21.93669168        1       0.00297618       0.00718613       0.00284109
Al       2.73188244       4.98605885      21.62299273        1       0.00090409       0.00073345      -0.00069906
Al       5.63045759       4.99026881      21.48624199        1      -0.00212288       0.00261914      -0.00612886
Al       8.40859738       5.05102785      21.48354565        1       0.00678229      -0.00432816       0.00775735
Al      11.24215527       5.00864475      21.54493889        1      -0.00182185      -0.00045955       0.00453153
Al       4.12857575       7.42037221      21.67028275        1       0.00112079      -0.00302358      -0.00080072
Al       6.98466806       7.47463849      21.64848434        1       0.00011254      -0.00044249       0.00090923
Al       9.83888268       7.47161849      21.63553755        1       0.00019892      -0.00505673      -0.00525768
Al      12.69462460       7.42700766      22.03011110        1      -0.00152176      -0.00071735       0.00883090
C        6.12502935       3.88178726      24.70627727        0      -0.00718389      -0.01711232      -0.00940078
N        6.99992644       2.93645892      24.37430428        0      -0.02300827      -0.00599167       0.00450258
C        8.23175502       3.38649106      24.74819302        0      -0.04497672       0.05167367       0.01689462
S        9.72880389       2.66784338      24.38494732        0       0.01430317      -0.00588174      -0.01585627
N        8.08407995       4.58071326      25.40468686        0       0.03632227       0.01175580      -0.00953022
N        6.73237812       4.95041374      25.34957550        0       0.00933879      -0.01273423       0.00668040
H        5.06319521       3.86844538      24.47671887        0      -0.00198448      -0.00131106      -0.01235936
H        8.80677862       5.28011289      25.54762961        0      -0.01663249      -0.03716207       0.01204665
H        6.57280732       5.88782626      24.95812116        0      -0.00059315       0.00881182      -0.01994786
