105
Lattice="11.45512985522207 0.0 0.0 5.727564927611035 9.92043345827187 0.0 0.0 0.0 31.691342951089922" Properties=species:S:1:pos:R:3:tags:I:1:forces:R:3 energy=-424.6123352050781 free_energy=-424.6123352050781 stress="0.006556510925292969 1.103617250919342e-06 -2.1420419216156006e-07 1.103617250919342e-06 0.006605338770896196 1.6987323760986328e-06 -2.1420419216156006e-07 1.6987323760986328e-06 0.006752396933734417" pbc="T T F"
Al       1.40283415       0.89564632       9.94617433        6       0.00049447       0.00016505       0.00023412
Al       4.26667358       0.89271482       9.95949155        6       0.00051102       0.00022866      -0.00034629
Al       7.12990440       0.89261348       9.96486135        6       0.00067577       0.00010173      -0.00020617
Al       9.99265812       0.89541674       9.95810269        6       0.00077306       0.00005601       0.00018170
Al       2.83120447       3.37972222       9.95642278        6       0.00056732      -0.00003201       0.00003950
Al       5.69560162       3.37529205       9.95623760        6       0.00050520       0.00021577      -0.00027017
Al       8.56020065       3.37545931       9.95641918        6       0.00070778       0.00008239      -0.00007785
Al      11.42530294       3.37902381       9.95483464        6       0.00068195      -0.00005873       0.00011103
Al       4.26351275       5.86020073       9.96835158        6       0.00058916       0.00001256       0.00005258
Al       7.13028688       5.85755168       9.96419962        6       0.00049797       0.00012540      -0.00016231
Al       9.99569027       5.85748992       9.96801329        6       0.00061670       0.00008258      -0.00013952
Al      12.85841154       5.86090587       9.97910537        6       0.00058875      -0.00008228      -0.00011739
Al       5.69787298       8.33831506       9.96118788        6       0.00060269       0.00004189       0.00030731
Al       8.56406459       8.33647332       9.96302663        6       0.00050110       0.00008623      -0.00004934
Al      11.42858613       8.33643210       9.97853788        6       0.00061178      -0.00008970      -0.00034902
Al      14.28930546       8.33938291       9.97708248        6       0.00074981      -0.00015543       0.00000842
Al       0.01298463       1.69758457      12.34671356        5       0.00108948       0.00098283       0.00511307
Al       2.87424093       1.69549841      12.33716108        5      -0.00019382       0.00271502       0.00929036
Al       5.73792326       1.69586035      12.34431048        5       0.00064838       0.00273433       0.00567712
Al       8.60723467       1.69614536      12.35378615        5      -0.00003775       0.00199394       0.00013380
Al       1.44637841       4.18080879      12.35901045        5       0.00058443       0.00034191       0.00207498
Al       4.30738962       4.18239075      12.35057743        5       0.00034750       0.00043876       0.00274130
Al       7.17451006       4.18209215      12.34524587        5      -0.00037187       0.00024144       0.00146502
Al      10.04148218       4.18226278      12.35193504        5      -0.00008657      -0.00040120       0.00048691
Al       2.87986154       6.66637399      12.37205506        5       0.00076751      -0.00125721       0.00183313
Al       5.74121560       6.67095304      12.35959281        5       0.00045583      -0.00193033       0.00109899
Al       8.60680656       6.66895458      12.35385576        5      -0.00106414      -0.00138444       0.00367084
Al      11.47038862       6.66595514      12.37051735        5       0.00054500      -0.00143899       0.00298579
Al       4.30951501       9.14382253      12.36676147        5       0.00152712       0.00030345       0.00401440
Al       7.17172905       9.14622087      12.34747577        5      -0.00022053       0.00000812       0.00943301
Al      10.03224779       9.14379324      12.34934915        5       0.00081842      -0.00013248       0.01058978
Al      12.90104693       9.14267845      12.36825057        5       0.00130767      -0.00042080       0.00573080
Al       0.02667304       0.04342941      14.67448910        4      -0.00060135      -0.00049775       0.00028879
Al       2.87614193       0.04303735      14.67059744        4      -0.00009685      -0.00179920      -0.00427192
Al       5.74041436       0.03425057      14.65901878        4       0.00052473       0.00009972       0.00126094
Al       8.61593236       0.03416023      14.67736496        4       0.00046574       0.00022415       0.00104555
Al       1.44594361       2.50884259      14.65113180        4       0.00060996       0.00036341       0.00131605
Al       4.30619859       2.50940693      14.63670879        4       0.00047178       0.00025963       0.00128464
Al       7.17471675       2.50580620      14.63433695        4       0.00052011       0.00021409       0.00109487
Al      10.04567299       2.51745977      14.64802582        4       0.00014351      -0.00113849       0.00029758
Al       2.88163744       4.99641643      14.66147746        4       0.00051899      -0.00023335       0.00106247
Al       5.74495664       5.00027796      14.63306479        4       0.00039378      -0.00005895       0.00114629
Al       8.61490671       4.99952762      14.63479453        4       0.00015193       0.00001297       0.00100813
Al      11.47823914       4.99551313      14.66234499        4       0.00035037       0.00011612       0.00103170
Al       4.31901965       7.48506480      14.67701107        4       0.00059281      -0.00001912       0.00086677
Al       7.18334047       7.48926108      14.65854127        4      -0.00092611      -0.00036654      -0.00016753
Al      10.03631793       7.47969051      14.66785896        4       0.00071832       0.00010911       0.00068102
Al      12.90884229       7.47435352      14.67858132        4       0.00047737       0.00033788       0.00117763
Al       1.41277818       0.85470003      17.01015564        3      -0.00036207      -0.00480045       0.00474571
Al       4.25867947       0.83609483      16.97504552        3       0.00117706      -0.00127696       0.00131837
Al       7.14938074       0.82725052      16.96631119        3       0.00049231       0.00020313       0.00180803
Al      10.03237738       0.84470141      17.00634230        3       0.00014496      -0.00002430       0.00123204
Al       2.84149713       3.29289827      16.96909562        3      -0.00061275       0.00154747       0.00145677
Al       5.70940838       3.31004314      16.93104464        3       0.00006562      -0.00066339       0.00164393
Al       8.58239774       3.32011291      16.92661384        3      -0.00135917      -0.00554229       0.00332375
Al      11.43242944       3.30469361      16.97696037        3       0.00276682       0.00049600       0.00089706
Al       4.28930204       5.79481522      16.96928299        3      -0.00379802       0.00424289      -0.00143381
Al       7.14928791       5.81484366      16.93942019        3      -0.00260345       0.00142397      -0.00291894
Al      10.01057466       5.79239260      16.97149300        3       0.00764345       0.01177730      -0.00476747
Al      12.87674454       5.79784898      16.98655238        3       0.00055793       0.00024006       0.00129692
Al       5.72977841       8.30313217      17.00463565        3       0.00012737       0.00343446      -0.00051074
Al       8.57079795       8.29479633      16.98836194        3       0.00339407       0.00697256      -0.00033252
Al      11.43926386       8.27751800      16.97494272        3       0.00183549       0.00447476       0.00801917
Al      14.33414118       8.28402860      16.99890634        3      -0.00941660       0.00022452       0.00276254
Al      -0.06549678       1.68186671      19.41022718        2      -0.00036993      -0.00087301      -0.00533219
Al       2.76470224       1.65032909      19.36281016        2       0.00087797      -0.00382187      -0.00535235
Al       5.62841526       1.63920369      19.23551742        2       0.00311287       0.00697607       0.00122684
Al       8.55718515       1.69211535      19.25396966        2      -0.00066153       0.00243628      -0.00282602
Al       1.35264107       4.12239517      19.25834953        2      -0.00093371       0.00159968      -0.00433363
Al       4.22974078       4.13932101      19.21561952        2       0.00012488      -0.00247884       0.00260621
Al       7.11499175       4.15809682      19.16766895        2      -0.00087029      -0.00063019       0.00861780
Al       9.94786589       4.13593317      19.22590232        2       0.00011194      -0.00160538      -0.00493778
Al       2.80891025       6.63298504      19.29914046        2      -0.00041543       0.00020473      -0.00164632
Al       5.68921483       6.65987913      19.23657314        2      -0.00111240       0.00078022      -0.00393130
Al       8.53417138       6.65578268      19.22305638        2       0.00123977      -0.00368440       0.00701113
Al      11.41608709       6.65757559      19.28746283        2      -0.00035909      -0.00423294       0.00417418
Al       4.24168755       9.13236460      19.33930642        2      -0.00056960      -0.00214822      -0.00627207
Al       7.12138917       9.14179869      19.37599443        2      -0.00161216      -0.00117855       0.00034748
Al       9.95828465       9.11346323      19.32720164        2       0.00132899       0.00418088      -0.00349368
Al      12.83086810       9.11360416      19.30680960        2      -0.00630816      -0.00771462      -0.00621446
Al      -0.30215809      -0.04698448      21.94099137        1      -0.00074120       0.00414023      -0.00136983
Al       2.70631042      -0.02460853      22.17088547        1      -0.00027192       0.00780469      -0.00512641
Al       5.57740264       0.11726968      21.70797170        1      -0.00032816       0.00199320       0.00109593
Al       8.35386638       0.09935034      21.58799113        1       0.01052151      -0.01234347       0.00827326
Al       1.21909636       2.62458680      21.89452896        1      -0.00068650      -0.00046999       0.00193961
Al       4.13966365       2.52265336      21.57281744        1       0.00420134       0.00105330       0.00619834
Al       7.00038912       2.56067844      21.48093567        1      -0.00715099      -0.00343972      -0.00717594
Al       9.76142875       2.58346497      21.90309565        1      -0.00297826       0.00384781       0.00904557
Al       2.73068642       4.99628471      21.62508861        1       0.00064025      -0.00026354       0.00130737
Al       5.63114593       4.99569616      21.48514039        1      -0.00486731      -0.00073103      -0.00490193
Al       8.40210649       5.03737019      21.53561585        1       0.00137970       0.00081402      -0.01011696
Al      11.23278558       4.99843118      21.56019162        1      -0.00360473       0.00077034       0.00319062
Al       4.13286648       7.42071855      21.68644465        1      -0.00025750      -0.00336478       0.00125665
Al       6.96837270       7.48110364      21.67696971        1       0.00266841      -0.00476304       0.00020095
Al       9.82586922       7.45247462      21.60942091        1      -0.00111587      -0.00506135      -0.00061595
Al      12.67617206       7.42513984      22.07021090        1       0.00305637       0.00218254       0.00887064
C        6.12698430       3.87117161      24.73391721        0       0.01964471      -0.02567428      -0.01195686
N        6.98199198       2.90765491      24.40852339        0       0.00326416       0.02280614       0.01251858
C        8.22723511       3.34396388      24.76970472        0      -0.03635017       0.00861353      -0.02024401
S        9.70945250       2.61447539      24.35617861        0       0.01066516      -0.00573130      -0.00387376
N        8.10606063       4.55093851      25.39383713        0      -0.00656615       0.02723111      -0.04306615
N        6.75591773       4.94108296      25.36559073        0       0.02073177      -0.01920830      -0.00031834
H        5.07319798       3.89257318      24.46867187        0      -0.00523321       0.00381595       0.00583014
H        8.83326268       5.16665196      25.74171065        0      -0.02627331      -0.04553245      -0.00413673
H        6.61916482       5.86151634      24.92528548        0       0.00591032       0.02977870      -0.01968352
