105
Lattice="11.45512985522207 0.0 0.0 5.727564927611035 9.92043345827187 0.0 0.0 0.0 31.691342951089922" Properties=species:S:1:pos:R:3:tags:I:1:forces:R:3 energy=-424.66552734375 free_energy=-424.66552734375 stress="0.006534431129693985 1.119915395975113e-06 -1.5366822481155396e-07 1.119915395975113e-06 0.0065858797170221806 1.6759149730205536e-06 -1.5366822481155396e-07 1.6759149730205536e-06 0.006734855473041534" pbc="T T F"
Al       1.40132762       0.89548949       9.94700995        6       0.00055262       0.00108382      -0.00078702
Al       4.26528236       0.89257577       9.95985877        6       0.00051674       0.00112731      -0.00092444
Al       7.12824932       0.89259963       9.96539143        6       0.00053958       0.00100329      -0.00088814
Al       9.99105561       0.89527854       9.95839424        6       0.00059156       0.00104611      -0.00075812
Al       2.82981635       3.37892958       9.95726247        6       0.00053526       0.00114765      -0.00092909
Al       5.69442534       3.37476915       9.95891657        6       0.00043427       0.00116781      -0.00128268
Al       8.55839039       3.37503196       9.95852449        6       0.00054860       0.00106694      -0.00110707
Al      11.42349919       3.37848258       9.95639954        6       0.00058769       0.00105751      -0.00102703
Al       4.26217515       5.85883808       9.96817450        6       0.00051472       0.00120772      -0.00069412
Al       7.12898785       5.85637869       9.96523600        6       0.00040472       0.00115965      -0.00103386
Al       9.99373071       5.85644193       9.96891980        6       0.00059030       0.00120899      -0.00093889
Al      12.85665972       5.85989048       9.97839479        6       0.00056418       0.00113659      -0.00067269
Al       5.69651777       8.33738922       9.95826731        6       0.00049248       0.00106597      -0.00024705
Al       8.56238735       8.33543335       9.96125823        6       0.00053734       0.00110886      -0.00053325
Al      11.42673047       8.33550276       9.97590377        6       0.00056768       0.00108904      -0.00036687
Al      14.28746873       8.33872790       9.97423561        6       0.00061959       0.00099039      -0.00033088
Al       0.01246576       1.69943366      12.35195627        5       0.00035761       0.00135056      -0.00683004
Al       2.87306935       1.70037420      12.34746654        5      -0.00008804       0.00115768      -0.00395584
Al       5.73751789       1.69975152      12.35004581        5      -0.00042637      -0.00008079      -0.00621239
Al       8.60461931       1.69797984      12.35785574        5      -0.00017039       0.00054336      -0.00837794
Al       1.44637764       4.18416635      12.36200887        5      -0.00028864       0.00082110      -0.00538965
Al       4.30522330       4.18526817      12.35107981        5       0.00029602       0.00074094      -0.00375293
Al       7.17226135       4.18437411      12.34984355        5      -0.00021996       0.00014477      -0.00853542
Al      10.04127058       4.18354641      12.35248126        5      -0.00081545       0.00094877      -0.00382782
Al       2.87945542       6.66842459      12.37876638        5      -0.00098669       0.00105117      -0.00593618
Al       5.73943661       6.67276237      12.36329533        5      -0.00039678      -0.00020470      -0.00673768
Al       8.60600869       6.67076908      12.36013823        5      -0.00030410       0.00004420      -0.00842052
Al      11.47215293       6.66812713      12.37718785        5      -0.00117469       0.00035167      -0.00748542
Al       4.30735205       9.14575215      12.37861705        5       0.00038336      -0.00004856      -0.00950931
Al       7.17121446       9.14964670      12.36083706        5      -0.00000900      -0.00030084      -0.00482224
Al      10.03349941       9.14704460      12.36983110        5       0.00073291      -0.00021040      -0.00463384
Al      12.89977013       9.14563821      12.38198046        5       0.00061668      -0.00045795      -0.00765696
Al       0.02734885       0.04368883      14.67407105        4      -0.00116206       0.00032831      -0.00043969
Al       2.87873941       0.04625555      14.67712448        4      -0.00231187      -0.00243550      -0.00697487
Al       5.74038047       0.03577044      14.68011970        4       0.00016812       0.00081491      -0.00415858
Al       8.61237910       0.03425434      14.69145075        4       0.00113873       0.00151267      -0.00232616
Al       1.44904365       2.50468683      14.64569409        4       0.00005353       0.00226885       0.00152681
Al       4.30388152       2.50675411      14.63189947        4       0.00065216       0.00181582       0.00129999
Al       7.17073071       2.50156924      14.63276541        4       0.00075538       0.00177848       0.00042969
Al      10.04738110       2.50956416      14.64059915        4       0.00004880       0.00114158       0.00052467
Al       2.88326310       4.99606716      14.66400445        4       0.00003859       0.00049879      -0.00012609
Al       5.74213461       4.99814691      14.63368903        4       0.00069744       0.00123839       0.00035799
Al       8.61499722       4.99836160      14.63247864        4       0.00011122       0.00120348       0.00032191
Al      11.47904274       4.99422460      14.66324792        4       0.00017796       0.00113141       0.00002549
Al       4.31629606       7.48568948      14.68746167        4       0.00127534       0.00057042      -0.00173305
Al       7.18184743       7.49394549      14.65270438        4      -0.00027250       0.00016356       0.00057934
Al      10.04149366       7.48467730      14.66962226        4      -0.00068339      -0.00030338      -0.00111862
Al      12.90912342       7.48225972      14.68806031        4       0.00039384       0.00031936      -0.00150294
Al       1.40727765       0.83521772      17.01895264        3       0.00059809       0.00152757       0.00058113
Al       4.26139211       0.83049522      16.98310158        3       0.00078508       0.00123348      -0.00014312
Al       7.14970853       0.82283226      16.98249578        3       0.00026807       0.00181720      -0.00019575
Al      10.03882424       0.84343469      17.00548588        3      -0.00243347       0.00049618      -0.00091821
Al       2.84080258       3.28751545      16.96472046        3      -0.00116556       0.00216499      -0.00052374
Al       5.70490983       3.30590987      16.92257645        3       0.00057524       0.00087349       0.00101169
Al       8.58238137       3.31456982      16.91695092        3       0.00028588       0.00064316       0.00080692
Al      11.43943991       3.29965721      16.96825736        3       0.00083755       0.00128874       0.00013071
Al       4.29039259       5.79059800      16.96826841        3      -0.00166666       0.00648446      -0.00255689
Al       7.15066485       5.81718043      16.92991587        3      -0.00023773       0.00117411       0.00054387
Al      10.01119564       5.79479309      16.96229206        3       0.00354557       0.00520433      -0.00087601
Al      12.87954696       5.80053886      16.98286312        3       0.00003289       0.00075812      -0.00024535
Al       5.73609500       8.30571025      17.00091575        3      -0.00137890       0.00164805      -0.00108443
Al       8.57597184       8.29931449      16.99073633        3       0.00057263       0.00233280      -0.00424319
Al      11.43961008       8.27706382      16.97830128        3       0.00030794       0.00160695       0.00191990
Al      14.33129112       8.28285196      17.01451957        3      -0.00237228       0.00215679      -0.00394790
Al      -0.06555999       1.67961688      19.42063880        2       0.00085205      -0.00032995       0.00188472
Al       2.76343791       1.63839426      19.33790904        2       0.00572960       0.00349591       0.02484493
Al       5.63737478       1.64412119      19.23808574        2      -0.00051301       0.00341095       0.00079628
Al       8.55857546       1.70977773      19.22726389        2      -0.00146174      -0.00676638       0.01381241
Al       1.35319412       4.12154830      19.23503548        2       0.00259602       0.00431690       0.01805418
Al       4.22744512       4.12929938      19.20695593        2       0.00149584       0.00071366       0.01337670
Al       7.12453407       4.14015019      19.16502245        2      -0.00775444       0.01283668       0.00558270
Al       9.95669312       4.13428998      19.22133456        2      -0.00142858       0.00163419      -0.00037602
Al       2.81977712       6.62453067      19.28293557        2      -0.00377598       0.00002720       0.01260494
Al       5.68360221       6.67448882      19.23452210        2       0.00017252      -0.00735237       0.00583342
Al       8.53731488       6.66139611      19.22480999        2      -0.00026795      -0.00676824       0.01033665
Al      11.40914433       6.64721270      19.28651528        2       0.00226041       0.00003641       0.00818116
Al       4.25333333       9.14344950      19.33466698        2      -0.00409199      -0.00373743       0.00460056
Al       7.12481145       9.13608773      19.38154661        2      -0.00240671       0.00281430       0.01229786
Al       9.95733107       9.11666934      19.30929419        2       0.00436857       0.00059997       0.01801418
Al      12.81786807       9.08809332      19.28540239        2       0.00162277       0.00431508       0.01277390
Al      -0.36764995      -0.03538272      22.00593887        1       0.02163010       0.00645935      -0.02284280
Al       2.70646338      -0.03315078      22.20956321        1      -0.00168861       0.00782716      -0.01655473
Al       5.58167378       0.11463494      21.70329747        1      -0.00227777      -0.00355606       0.00071698
Al       8.35859608       0.11444928      21.56743572        1       0.00505794      -0.02304843       0.00951518
Al       1.22482836       2.62045650      21.89490750        1      -0.00183857      -0.00216018      -0.00242231
Al       4.15240287       2.51889372      21.56683994        1      -0.00958099       0.00358561       0.00707042
Al       6.99588489       2.55659528      21.47549848        1      -0.00420006      -0.00009752       0.00147587
Al       9.75368260       2.58924922      21.93301134        1       0.00233516       0.00903064      -0.00532572
Al       2.72471896       4.99474621      21.62530603        1       0.00030112       0.00040280       0.00066624
Al       5.63141934       4.99100371      21.47827425        1      -0.01330377       0.00428899       0.00005547
Al       8.39420043       5.04523196      21.50409601        1       0.01379034      -0.00298084      -0.00139496
Al      11.22598027       5.00691174      21.55163767        1       0.00202344       0.00087115       0.00648204
Al       4.12516843       7.42092262      21.67907104        1      -0.00024366      -0.00315844       0.00073779
Al       6.96909410       7.47904589      21.66140643        1       0.00214861       0.00031295      -0.00033947
Al       9.81873273       7.46800731      21.62621430        1       0.00017036      -0.00421752      -0.00305855
Al      12.67694804       7.43024720      22.02637458        1      -0.00029102       0.00110185       0.01039538
C        6.13490175       3.87860433      24.72368282        0      -0.02730535       0.01518643       0.02131439
N        6.98960773       2.91905209      24.39772190        0       0.00650140      -0.03248668      -0.01946047
C        8.22831524       3.34781112      24.77215710        0       0.04155092      -0.04024393      -0.03985097
S        9.71032537       2.60565802      24.35748127        0      -0.00853719       0.01469203       0.02401148
N        8.11007596       4.53033208      25.43745718        0       0.08019073       0.09610504       0.01064603
N        6.76100883       4.93189187      25.40002802        0      -0.05114289       0.08955607      -0.08304705
H        5.08084250       3.89886579      24.45788483        0       0.00844575       0.01186305       0.01649182
H        8.84470830       5.19759548      25.66205980        0      -0.09657240      -0.12127576      -0.00683096
H        6.64799467       5.85156309      24.93632017        0       0.02970150      -0.10427161       0.06658681
