105
Lattice="11.45512985522207 0.0 0.0 5.727564927611035 9.92043345827187 0.0 0.0 0.0 31.691342951089922" Properties=species:S:1:pos:R:3:tags:I:1:forces:R:3 energy=-424.3676452636719 free_energy=-424.3676452636719 stress="0.006334503181278706 1.5329569578170776e-06 -2.0302832126617432e-07 1.5329569578170776e-06 0.006378417834639549 1.3373792171478271e-06 -2.0302832126617432e-07 1.3373792171478271e-06 0.006472010165452957" pbc="T T F"
Al       1.40900834       0.89740652       9.96278790        6       0.00070211       0.00031873       0.00192923
Al       4.27269392       0.89511384       9.97017470        6       0.00069231       0.00038163       0.00195131
Al       7.13725378       0.89444607       9.97585854        6       0.00066410       0.00046112       0.00180674
Al      10.00122838       0.89668825       9.97206156        6       0.00065206       0.00041875       0.00169018
Al       2.83813399       3.37893880       9.97009069        6       0.00070125       0.00032659       0.00188649
Al       5.70160951       3.37704775       9.96707084        6       0.00068784       0.00038066       0.00192763
Al       8.56767832       3.37655480       9.96772926        6       0.00067871       0.00042318       0.00169707
Al      11.43276240       3.37857441       9.96923355        6       0.00064115       0.00035305       0.00178397
Al       4.27056572       5.85941093       9.97997298        6       0.00074534       0.00027151       0.00180309
Al       7.13598823       5.85760131       9.97348998        6       0.00065341       0.00031545       0.00173041
Al      10.00205091       5.85752480       9.97889200        6       0.00059468       0.00035648       0.00164939
Al      12.86505257       5.85949377       9.98899719        6       0.00065430       0.00029861       0.00172668
Al       5.70485333       8.33786974       9.97562886        6       0.00069567       0.00033218       0.00184965
Al       8.56970702       8.33634121       9.97481058        6       0.00066999       0.00037355       0.00196717
Al      11.43502950       8.33536930       9.98764472        6       0.00062758       0.00040891       0.00192143
Al      14.29757900       8.33761184       9.98901713        6       0.00064905       0.00037008       0.00189823
Al       0.01638585       1.70224844      12.36705726        5       0.00174490       0.00031802       0.00004602
Al       2.87796737       1.70272083      12.36998307        5      -0.00050714       0.00052249      -0.00403117
Al       5.74057857       1.69925843      12.37169035        5      -0.00016725       0.00147398      -0.00355643
Al       8.60779764       1.69850196      12.36744175        5      -0.00034239       0.00218687       0.00141565
Al       1.44756080       4.18380412      12.37890413        5       0.00116517      -0.00024017      -0.00013997
Al       4.30884180       4.18336793      12.37079374        5       0.00026250       0.00013792      -0.00070524
Al       7.17470202       4.18243972      12.35777842        5       0.00055085       0.00056263       0.00606823
Al      10.04162150       4.18368763      12.36665344        5       0.00052369       0.00038461       0.00296261
Al       2.87972253       6.66869513      12.38811029        5       0.00097553      -0.00233954       0.00262540
Al       5.74219108       6.66965857      12.37314461        5       0.00106966      -0.00157948       0.00222406
Al       8.60852167       6.66863176      12.37186100        5       0.00029667      -0.00033930       0.00301411
Al      11.47333715       6.66788819      12.38585344        5      -0.00032573      -0.00107976       0.00247507
Al       4.30974573       9.14632984      12.37800123        5       0.00198910      -0.00018651       0.00534918
Al       7.17433302       9.14811738      12.37733991        5       0.00072954      -0.00042039      -0.00620973
Al      10.03876268       9.14717488      12.38439946        5      -0.00016393      -0.00091046      -0.00315690
Al      12.90341454       9.14529590      12.39179419        5      -0.00041007      -0.00003350      -0.00080107
Al       0.02218031       0.04267735      14.68861389        4      -0.00359944      -0.00294312      -0.01421901
Al       2.88096290       0.04394405      14.68179995        4      -0.00051336      -0.00172646      -0.00356748
Al       5.74641976       0.03627726      14.69313561        4       0.00045262       0.00007811       0.00120735
Al       8.61638092       0.03803150      14.69502963        4      -0.00269125      -0.00179804      -0.00303083
Al       1.45108562       2.51470829      14.67887868        4      -0.00096196       0.00103180      -0.00873449
Al       4.30929300       2.51344022      14.66778931        4      -0.00044424      -0.00000198       0.00028635
Al       7.17641869       2.50885832      14.65950630        4      -0.00084089      -0.00037996      -0.00116107
Al      10.04570252       2.51133653      14.66611835        4      -0.00114173      -0.00057153      -0.00948749
Al       2.88462433       4.99638721      14.68480103        4       0.00001248       0.00053319       0.00204848
Al       5.74319070       4.99803098      14.66159609        4       0.00060109       0.00054321       0.00126008
Al       8.61482080       4.99878573      14.66228622        4      -0.00024751       0.00128457      -0.00406134
Al      11.47823384       4.99726587      14.68274409        4       0.00023928       0.00085989       0.00154987
Al       4.32048005       7.48525161      14.69255921        4      -0.00345295      -0.00211263      -0.00424779
Al       7.17884753       7.48819895      14.67464510        4      -0.00010844      -0.00198843      -0.00581025
Al      10.04560315       7.48395224      14.68542101        4       0.00045657      -0.00002318       0.00202689
Al      12.90922426       7.47956109      14.69673211        4       0.00045083       0.00049428       0.00272591
Al       1.41006428       0.85318609      16.99107799        3       0.00030475      -0.01237906       0.02759541
Al       4.26488435       0.83538476      16.99043488        3       0.00003600      -0.00034228       0.00284787
Al       7.14438975       0.82726704      17.00255226        3       0.00023060       0.00046272       0.00165377
Al      10.01724681       0.84081148      17.00082045        3       0.00073248       0.00079755       0.00302809
Al       2.83640474       3.30288459      16.99327058        3      -0.00292326       0.00235035      -0.00123638
Al       5.69771164       3.31395229      16.94721136        3       0.00142539       0.00005750       0.00304048
Al       8.58014193       3.32005861      16.92633256        3       0.00046548      -0.00046973       0.01300986
Al      11.44111580       3.30668131      16.97097921        3       0.00079404       0.00575526       0.01317504
Al       4.27781889       5.81100283      16.98941960        3       0.00024990       0.00020865       0.00201299
Al       7.14895725       5.82193215      16.94782633        3      -0.00069477      -0.00022769       0.00334281
Al      10.01462377       5.81135027      16.98637505        3       0.00308328       0.00151591       0.00194658
Al      12.87660573       5.80982466      17.00656789        3       0.00057049       0.00058912       0.00306940
Al       5.71641190       8.30437708      16.99493188        3       0.00123918       0.00089377       0.00378010
Al       8.57139036       8.30251034      16.98148363        3       0.00162562       0.00278057       0.00495799
Al      11.43627537       8.29040620      17.01532899        3       0.00062542       0.00048020       0.00311844
Al      14.30510030       8.28434135      17.01618218        3      -0.00044625      -0.00025884       0.00272620
Al      -0.06892968       1.67795100      19.36330908        2       0.00079632      -0.00072004       0.00222027
Al       2.76945977       1.63590085      19.32244378        2      -0.00126113      -0.00026257       0.00155041
Al       5.63397128       1.64779651      19.23750041        2      -0.00257230      -0.00153402      -0.00027981
Al       8.56039883       1.69881691      19.24304092        2       0.00108922      -0.00124089       0.00371231
Al       1.35146925       4.13872192      19.27609338        2      -0.00054228      -0.00091024       0.00113355
Al       4.21726965       4.13027758      19.22436898        2       0.00146724      -0.00011381       0.00279069
Al       7.11053931       4.13625082      19.18171718        2      -0.00271786       0.00418230      -0.00275633
Al       9.96361277       4.12870775      19.23113417        2      -0.00058063       0.00008183      -0.00359036
Al       2.80921789       6.62441329      19.34631123        2      -0.00197744       0.00385660      -0.00630459
Al       5.67868655       6.66815254      19.24857835        2       0.00068005       0.00027479      -0.00724573
Al       8.53418310       6.67598793      19.22610921        2       0.00119520      -0.00277133      -0.00043283
Al      11.41289136       6.64839386      19.34330174        2       0.00051813       0.00036792      -0.00059786
Al       4.23586416       9.12284299      19.28797044        2       0.00074199       0.00107868       0.00496863
Al       7.11109342       9.13009381      19.35355680        2       0.00020216       0.00304217      -0.00328606
Al       9.95614000       9.11133716      19.34706828        2      -0.00157005       0.00026354      -0.00111564
Al      12.81364700       9.09007455      19.35876787        2      -0.00066541      -0.00070930      -0.00447042
Al      -0.31843082      -0.03036398      21.93496585        1       0.00091255      -0.00788448      -0.00800153
Al       2.69531602       0.02755637      22.16602998        1       0.00092827      -0.00159603       0.00290126
Al       5.58210016       0.10576185      21.72325144        1      -0.00094702      -0.00922416      -0.00242704
Al       8.39095079       0.07601115      21.59128831        1       0.00203099      -0.01016663       0.00685598
Al       1.20721579       2.61323378      21.88979792        1      -0.00028608      -0.00093275      -0.00365845
Al       4.15821079       2.52074771      21.57821527        1      -0.00201362      -0.00188111      -0.00231614
Al       6.99286651       2.51591972      21.47475084        1      -0.00230891       0.00471787      -0.00343482
Al       9.75128558       2.57197205      21.93815681        1       0.00885028       0.00123515      -0.01776057
Al       2.73459914       4.98344657      21.65344504        1       0.00159129      -0.00011548       0.00148019
Al       5.62056687       4.98003248      21.45977131        1       0.00007937       0.00069134       0.00249233
Al       8.40932835       5.00775776      21.45375659        1       0.00241895      -0.00230153       0.00635437
Al      11.22287870       4.99659440      21.59346451        1       0.00369137      -0.00099330       0.00130471
Al       4.13580083       7.41411617      21.70754384        1       0.00104674      -0.00079039       0.00369839
Al       6.99860110       7.45043613      21.67465336        1       0.00194725      -0.00179849       0.00381080
Al       9.82103627       7.39360273      21.66117670        1      -0.00150249      -0.00404662      -0.00078192
Al      12.71039077       7.43161279      22.11818176        1      -0.00072939       0.00001293       0.00375507
C        6.12818229       3.87359537      24.65272996        0       0.00660826       0.04878554       0.00703444
N        6.98222986       2.88444175      24.41049166        0       0.01463054      -0.02817850      -0.00268367
C        8.23095728       3.35919949      24.64843830        0      -0.01576030       0.01588861      -0.00836214
S        9.70079656       2.55432611      24.34460980        0      -0.00240151       0.00163631       0.00826432
N        8.15813207       4.70450959      24.98824788        0      -0.02718606      -0.00960355       0.00181800
N        6.77518461       5.01089512      25.11964255        0       0.00173920      -0.00410360      -0.00878825
H        5.06446709       3.86049700      24.43229224        0      -0.01049404       0.00261746       0.00298801
H        8.78327224       5.10317008      25.68857456        0       0.00434191      -0.00405623      -0.03811112
H        6.51005487       5.89950556      24.67501279        0       0.00437880       0.00745500      -0.02438798
