105
Lattice="11.45512985522207 0.0 0.0 5.727564927611035 9.92043345827187 0.0 0.0 0.0 31.691342951089922" Properties=species:S:1:pos:R:3:tags:I:1:forces:R:3 energy=-424.3616027832031 free_energy=-424.3616027832031 stress="0.006483590230345726 1.339241862297058e-06 -1.9278377294540405e-07 1.339241862297058e-06 0.006529373116791248 1.6069971024990082e-06 -1.9278377294540405e-07 1.6069971024990082e-06 0.006659563165158033" pbc="T T F"
Al       1.40895582       0.89678432       9.95881803        6       0.00071806       0.00069742       0.00165884
Al       4.27258277       0.89442439       9.96648382        6       0.00069458       0.00075276       0.00159558
Al       7.13717579       0.89379027       9.97218539        6       0.00067901       0.00081130       0.00148829
Al      10.00108411       0.89609319       9.96832860        6       0.00069131       0.00076844       0.00145848
Al       2.83800986       3.37847287       9.96634825        6       0.00070681       0.00066477       0.00154771
Al       5.70154439       3.37642827       9.96331140        6       0.00068553       0.00072529       0.00157262
Al       8.56758834       3.37597217       9.96395203        6       0.00069686       0.00076099       0.00139558
Al      11.43267204       3.37806403       9.96534057        6       0.00066500       0.00068847       0.00150279
Al       4.27045739       5.85907955       9.97645964        6       0.00075730       0.00060723       0.00145714
Al       7.13595395       5.85717900       9.97001128        6       0.00066317       0.00067603       0.00138690
Al      10.00201792       5.85703526       9.97522482        6       0.00061376       0.00071415       0.00130838
Al      12.86500889       5.85912939       9.98552783        6       0.00066798       0.00062624       0.00136649
Al       5.70477304       8.33747736       9.97208057        6       0.00071288       0.00068750       0.00154546
Al       8.56967211       8.33588653       9.97121385        6       0.00067550       0.00073204       0.00159925
Al      11.43499478       8.33494519       9.98428901        6       0.00063764       0.00074154       0.00151771
Al      14.29748631       8.33726760       9.98553472        6       0.00067055       0.00069030       0.00156487
Al       0.01609129       1.70252895      12.36575806        5       0.00166344       0.00020712       0.00052657
Al       2.87756758       1.70314149      12.36605529        5      -0.00036061       0.00030025      -0.00073975
Al       5.74008115       1.70031643      12.36855332        5       0.00026659       0.00079323      -0.00234936
Al       8.60753230       1.69958784      12.36627934        5      -0.00006458       0.00159890       0.00045346
Al       1.44752032       4.18231635      12.37628619        5       0.00091355       0.00084092      -0.00001763
Al       4.30885068       4.18205758      12.36846812        5       0.00012245       0.00121630      -0.00094243
Al       7.17403594       4.18209891      12.35639304        5       0.00079196       0.00089734       0.00509334
Al      10.04076744       4.18245782      12.36488502        5       0.00084059       0.00114851       0.00207218
Al       2.88026449       6.66718902      12.38627502        5       0.00069358      -0.00115533       0.00157423
Al       5.74198775       6.66839926      12.37099893        5       0.00113360      -0.00042449       0.00189868
Al       8.60737675       6.66739051      12.36907038        5       0.00057388       0.00050368       0.00309407
Al      11.47252717       6.66660988      12.38282935        5       0.00007278      -0.00021487       0.00225303
Al       4.31050505       9.14651758      12.37663889        5       0.00169612       0.00023123       0.00514313
Al       7.17337774       9.14800304      12.37272434        5       0.00101745       0.00013270      -0.00106399
Al      10.03729097       9.14691145      12.37815367        5       0.00062184      -0.00021096       0.00137704
Al      12.90326475       9.14567597      12.38831524        5      -0.00002184      -0.00002687       0.00006044
Al       0.02262536       0.04320175      14.69076053        4      -0.00316019      -0.00257070      -0.01537195
Al       2.88035057       0.04361814      14.68013143        4       0.00008817      -0.00086444      -0.00260325
Al       5.74555887       0.03618897      14.68893492        4       0.00060247       0.00060671       0.00149673
Al       8.61697157       0.03848008      14.69240140        4      -0.00201925      -0.00094419      -0.00139610
Al       1.45050356       2.51507015      14.67821733        4       0.00003328       0.00054918      -0.00637077
Al       4.30923232       2.51359461      14.66601639        4      -0.00010129       0.00039993       0.00078900
Al       7.17672090       2.50962427      14.65783121        4      -0.00121779      -0.00035294      -0.00141620
Al      10.04532484       2.51252158      14.66657398        4      -0.00095641      -0.00127875      -0.01044109
Al       2.88429479       4.99578449      14.68236169        4       0.00027394       0.00091303       0.00200443
Al       5.74353306       4.99815325      14.65855524        4       0.00057038       0.00086809       0.00171052
Al       8.61438158       4.99838094      14.66047863        4      -0.00024397       0.00162293      -0.00355163
Al      11.47786980       4.99684884      14.68026994        4       0.00026876       0.00118816       0.00131950
Al       4.32130628       7.48537089      14.68990686        4      -0.00230816      -0.00085229      -0.00179018
Al       7.17864583       7.48780984      14.67395728        4       0.00035886      -0.00052466      -0.00431223
Al      10.04410992       7.48316969      14.68185718        4       0.00054392       0.00056606       0.00191177
Al      12.90887818       7.47824885      14.69283745        4       0.00054008       0.00093066       0.00247807
Al       1.41192354       0.85046610      16.99698711        3       0.00030531      -0.00686550       0.02134872
Al       4.26492376       0.83595287      16.99089483        3       0.00046037       0.00057239       0.00265220
Al       7.14458500       0.82929925      17.00159427        3       0.00032853       0.00063287       0.00173726
Al      10.01849503       0.84064060      17.00340872        3       0.00064640       0.00106247       0.00268722
Al       2.83848209       3.30285424      16.99429652        3      -0.00276366       0.00199037      -0.00054416
Al       5.69808102       3.31305603      16.94916541        3       0.00126019       0.00067718       0.00266446
Al       8.57850183       3.31804280      16.92669532        3       0.00103623       0.00052820       0.01419422
Al      11.44229085       3.30579073      16.97048522        3       0.00050226       0.00647731       0.01396027
Al       4.27813308       5.81080880      16.98851556        3       0.00045810       0.00070971       0.00206249
Al       7.14911522       5.82208618      16.94678539        3      -0.00078633      -0.00000999       0.00347397
Al      10.01372578       5.81134896      16.98340470        3       0.00338695       0.00219190       0.00192810
Al      12.87739941       5.80826214      17.00367345        3       0.00049700       0.00096893       0.00272604
Al       5.71823865       8.30558884      16.99648807        3       0.00084245       0.00101048       0.00303334
Al       8.57294810       8.30504684      16.98543118        3       0.00086231       0.00136752       0.00303232
Al      11.43629197       8.29142517      17.00825140        3       0.00081197       0.00001718       0.00370957
Al      14.30517216       8.28522169      17.01387236        3      -0.00011638       0.00032480       0.00245711
Al      -0.06732653       1.67797533      19.36670559        2       0.00000581       0.00003630      -0.00132902
Al       2.77074942       1.63730928      19.33186424        2      -0.00087901       0.00011932      -0.00043377
Al       5.63492558       1.64968842      19.24389819        2      -0.00228457      -0.00068210      -0.00199363
Al       8.55837798       1.69713261      19.24968633        2       0.00152586       0.00027159      -0.00081650
Al       1.35189235       4.13928427      19.27629633        2      -0.00049727      -0.00035003      -0.00036719
Al       4.21703796       4.13086421      19.22999451        2       0.00190164       0.00029220       0.00125801
Al       7.11224710       4.13364436      19.18605467        2      -0.00321818       0.00557188      -0.00324842
Al       9.96198626       4.13017287      19.22675600        2      -0.00033345      -0.00010240      -0.00258810
Al       2.80816786       6.62563441      19.34391119        2      -0.00169239       0.00318419      -0.00614049
Al       5.67839780       6.66869307      19.25062029        2       0.00074840      -0.00056427      -0.00792640
Al       8.53358196       6.67464478      19.23080220        2       0.00118932      -0.00293765      -0.00211288
Al      11.41383907       6.64597653      19.34378855        2       0.00064245       0.00171289      -0.00191289
Al       4.23406021       9.11956499      19.29317394        2       0.00097120       0.00141675      -0.00127160
Al       7.11084763       9.12976194      19.35904703        2       0.00045762       0.00345474      -0.00509108
Al       9.95904596       9.11358757      19.34648767        2      -0.00258359       0.00020649      -0.00000475
Al      12.81514488       9.09160909      19.35746008        2      -0.00111039      -0.00071687      -0.00629143
Al      -0.30924816      -0.02608429      21.92576147        1      -0.00247765      -0.00715937       0.00025355
Al       2.69654277       0.02988588      22.15346687        1       0.00136398      -0.00106407       0.00359232
Al       5.58260839       0.10717182      21.72127226        1      -0.00118261      -0.01127195      -0.00279727
Al       8.39609127       0.07020559      21.58978961        1       0.00034068      -0.00279917       0.00817248
Al       1.20916666       2.61163971      21.88669240        1      -0.00146198       0.00163154       0.00051668
Al       4.15765706       2.52212564      21.59646018        1      -0.00459501      -0.00186754      -0.00746903
Al       6.99747132       2.51876621      21.48876746        1      -0.00395074       0.00329204      -0.00313614
Al       9.75782333       2.56516713      21.93109157        1       0.00489719       0.00262093       0.00243356
Al       2.73134479       4.98371274      21.65691392        1       0.00123873      -0.00036035       0.00012078
Al       5.62141281       4.98131863      21.47442639        1      -0.00599897       0.00059911       0.00397766
Al       8.40809182       5.00662018      21.46552185        1       0.00446835      -0.00191457       0.00440768
Al      11.21896737       4.99419888      21.59903500        1       0.00109746       0.00059184       0.00143681
Al       4.13615584       7.41502087      21.70486849        1       0.00043686       0.00114851       0.00225454
Al       6.99676008       7.45385543      21.67600069        1       0.00298974       0.00170935      -0.00080526
Al       9.82479010       7.39892156      21.65614670        1      -0.00096409      -0.00272397      -0.00062812
Al      12.70828568       7.43235883      22.11642988        1      -0.00021301       0.00008619       0.00442823
C        6.13473252       3.88191529      24.64529127        0      -0.03041507      -0.21550749      -0.08224374
N        6.99105414       2.87982621      24.41623748        0      -0.12300229       0.03894383       0.00611541
C        8.22722904       3.36686777      24.65825378        0       0.09341267      -0.02764829      -0.00782927
S        9.69715009       2.56231708      24.37608430        0       0.01000650      -0.00036710      -0.00877200
N        8.15601631       4.71514756      24.99020072        0       0.01254008      -0.01988954       0.00681370
N        6.77414475       4.99897886      25.13399617        0      -0.08016472       0.24854660       0.00484473
H        5.07159510       3.85690628      24.41884102        0       0.01056615       0.01037927       0.01998181
H        8.78258846       5.11283417      25.69048402        0      -0.00006436      -0.00473956      -0.04340407
H        6.47575697       5.88438109      24.69406547        0       0.09438697      -0.05225075       0.04002906
