105
Lattice="11.45512985522207 0.0 0.0 5.727564927611035 9.92043345827187 0.0 0.0 0.0 31.691342951089922" Properties=species:S:1:pos:R:3:tags:I:1:forces:R:3 energy=-424.59906005859375 free_energy=-424.59906005859375 stress="0.005268043838441372 1.218169927597046e-06 -3.096647560596466e-07 1.218169927597046e-06 0.0053241075947880745 1.5888363122940063e-06 -3.096647560596466e-07 1.5888363122940063e-06 0.005458462983369827" pbc="T T F"
Al       1.42307979       0.83770870      10.01254104        6      -0.00060222       0.00082546      -0.00042618
Al       4.28710321       0.83758006      10.01356218        6      -0.00047079       0.00077318       0.00014934
Al       7.15078190       0.83750422      10.01355019        6      -0.00054103       0.00073308       0.00028895
Al      10.01435229       0.83770080      10.01327208        6      -0.00067344       0.00079032      -0.00015327
Al       2.85489801       3.31827667      10.01302012        6      -0.00060561       0.00098138       0.00002251
Al       5.71889251       3.31801859      10.01301179        6      -0.00053738       0.00088579       0.00021034
Al       8.58270233       3.31808317      10.01348757        6      -0.00053895       0.00085412       0.00040149
Al      11.44632523       3.31834348      10.01324267        6      -0.00059607       0.00098410       0.00015331
Al       4.28676518       5.79854458      10.01361035        6      -0.00062767       0.00098358       0.00048461
Al       7.15088871       5.79835800      10.01401657        6      -0.00052125       0.00088956       0.00054608
Al      10.01479585       5.79845983      10.01446183        6      -0.00046952       0.00096148       0.00088510
Al      12.87821772       5.79861295      10.01465453        6      -0.00058750       0.00096565       0.00077947
Al       5.71870520       8.27827632      10.01366475        6      -0.00065916       0.00076915      -0.00000266
Al       8.58293124       8.27819578      10.01409894        6      -0.00047988       0.00077728       0.00032668
Al      11.44664872       8.27818687      10.01487576        6      -0.00051446       0.00079796       0.00065056
Al      14.31004417       8.27831775      10.01431778        6      -0.00066088       0.00081771       0.00028884
Al       0.00633169       1.65741357      12.39205613        5      -0.00068454       0.00076121      -0.00211284
Al       2.86924388       1.65674839      12.39060066        5      -0.00013227       0.00124920      -0.00316336
Al       5.73674558       1.65512837      12.39221147        5      -0.00061091       0.00131084      -0.00281009
Al       8.59976584       1.65601206      12.39529317        5      -0.00038247       0.00106791      -0.00318490
Al       1.43762465       4.14106124      12.39732658        5      -0.00013298       0.00046537      -0.00472788
Al       4.30167045       4.14122251      12.39176990        5      -0.00055080      -0.00006842      -0.00279511
Al       7.16849455       4.13963806      12.39585018        5      -0.00066833       0.00037396      -0.00525151
Al      10.03240193       4.14098665      12.39793135        5      -0.00055665       0.00013389      -0.00373054
Al       2.86928130       6.62201441      12.40161049        5       0.00006329      -0.00066760      -0.00572618
Al       5.73403764       6.62128358      12.39719481        5      -0.00021180      -0.00040667      -0.00518125
Al       8.60157304       6.62072874      12.40136064        5      -0.00089632      -0.00035353      -0.00606954
Al      11.46362742       6.62069725      12.40677885        5      -0.00049959      -0.00039177      -0.00727640
Al       4.30176850       9.09739975      12.39719430        5      -0.00052538       0.00042221      -0.00575509
Al       7.16636914       9.09749264      12.39397569        5      -0.00085816       0.00011847      -0.00455631
Al      10.03203215       9.09588589      12.40031670        5      -0.00053444       0.00030554      -0.00725194
Al      12.89507138       9.09560925      12.40085731        5      -0.00048856       0.00048821      -0.00584572
Al       0.00300339       0.00467374      14.68267689        4      -0.00042887       0.00089347       0.00153788
Al       2.86308856       0.00254436      14.67899302        4      -0.00026646       0.00091724       0.00170615
Al       5.73241679      -0.00077384      14.68368048        4      -0.00031673       0.00098857       0.00188036
Al       8.59515118       0.00047852      14.68805258        4      -0.00023311       0.00099699       0.00163700
Al       1.42909846       2.48215759      14.68066972        4      -0.00029043       0.00097467       0.00135036
Al       4.29667455       2.48174574      14.66992487        4      -0.00030444       0.00084461       0.00141807
Al       7.16618054       2.48143997      14.67984364        4      -0.00014573       0.00076062       0.00137926
Al      10.02849339       2.48468256      14.68170928        4      -0.00034241       0.00093360       0.00157956
Al       2.86267659       4.97022913      14.68115237        4      -0.00035419       0.00059334       0.00144449
Al       5.72899565       4.96863462      14.67700968        4      -0.00027131       0.00067636       0.00091054
Al       8.59775747       4.96799081      14.68439162        4      -0.00005744       0.00060276       0.00126880
Al      11.45789704       4.96853019      14.69179552        4      -0.00023479       0.00067487       0.00172970
Al       4.29472295       7.44964971      14.69375060        4      -0.00010388       0.00073304       0.00077776
Al       7.16219438       7.44823518      14.68375696        4      -0.00028692       0.00079960       0.00155444
Al      10.02760458       7.44650618      14.70197965        4      -0.00023076       0.00064718       0.00152012
Al      12.88842996       7.44871955      14.70381566        4      -0.00024627       0.00066895       0.00136703
Al       1.42000373       0.82031550      16.99341789        3      -0.00027667       0.00343711      -0.00169636
Al       4.28939331       0.81503932      16.97084725        3      -0.00097376       0.00081961       0.00094702
Al       7.16682269       0.80832505      16.98865357        3       0.00000505       0.00184999      -0.00028681
Al      10.02368532       0.82563123      16.98805690        3      -0.00017721       0.00100892       0.00203294
Al       2.85203616       3.30464925      16.96420695        3      -0.00031230       0.00090491       0.00168625
Al       5.72734951       3.30506172      16.95796977        3       0.00073418       0.00082211      -0.00019613
Al       8.60308469       3.30730047      16.98577868        3      -0.00071312       0.00086962       0.00172245
Al      11.44520450       3.30777272      16.99751704        3      -0.00039387       0.00079669       0.00192705
Al       4.28719590       5.79355318      16.98379323        3      -0.00020788       0.00108859      -0.00178593
Al       7.16007323       5.78729659      16.97626295        3       0.00035858       0.00043064      -0.00463718
Al      10.02616990       5.77573836      17.00751987        3       0.00082932       0.00018413       0.00035806
Al      12.88280516       5.79253538      17.00684009        3      -0.00026009       0.00002553       0.00119289
Al       5.72682528       8.27487601      16.99238900        3      -0.00127858       0.00027718       0.00090707
Al       8.58587775       8.26872155      16.99439061        3       0.00188470       0.00060880      -0.00183758
Al      11.45608516       8.26780416      17.02162332        3      -0.00066587      -0.00017481      -0.00393389
Al      14.31243145       8.26763752      17.02269238        3       0.00128727       0.00063850      -0.00209078
Al      -0.02261150       1.66852655      19.29094964        2       0.00234977      -0.00166590       0.00671124
Al       2.84691231       1.66350578      19.24237761        2      -0.00223693      -0.00223255       0.00887036
Al       5.72599296       1.65821148      19.19766698        2      -0.00524326      -0.00396866       0.00711810
Al       8.60364027       1.66899323      19.24948716        2      -0.00013876      -0.00171118       0.00116528
Al       1.41929172       4.10590517      19.25915636        2      -0.00019447       0.00006682       0.00200056
Al       4.29331815       4.13272024      19.20925422        2      -0.00122902      -0.00010826       0.00737128
Al       7.16885194       4.14949690      19.24890607        2      -0.00007477      -0.00314894      -0.00626078
Al      10.01837039       4.10914987      19.35463183        2      -0.00174585      -0.00043641      -0.00683981
Al       2.87186683       6.62485738      19.30578805        2      -0.00123446       0.00085359       0.00519917
Al       5.74173446       6.62117224      19.23964646        2      -0.00066632       0.00155232       0.00375532
Al       8.59143136       6.60899262      19.23888142        2      -0.00074118       0.00296068       0.00050926
Al      11.45694261       6.62718297      19.29315975        2       0.00053418       0.00255892      -0.00287700
Al       4.30978341       9.12580540      19.28605831        2      -0.00193289      -0.00296396       0.00930051
Al       7.16092496       9.11115213      19.28016115        2      -0.00002927      -0.00057653       0.00700019
Al      10.00529546       9.11494815      19.28203864        2       0.00111656      -0.00158638       0.00123310
Al      12.88704164       9.10137857      19.33689383        2       0.00107299       0.00082606       0.00715453
Al      -0.04660556      -0.02667490      21.76002822        1      -0.00626410      -0.00105185       0.00789564
Al       2.85373758      -0.03925426      21.78243233        1      -0.00252577      -0.00140165       0.00842931
Al       5.70651919       0.04017731      21.70519380        1      -0.00273695       0.00345984       0.00330896
Al       8.53371788       0.07164577      21.72981314        1      -0.00475248       0.00639823       0.00432721
Al       1.38657710       2.53793181      21.77670237        1      -0.00737829       0.00243937       0.00982329
Al       4.29320724       2.49665077      21.52590448        1      -0.00329414      -0.00289595       0.00068724
Al       7.08699078       2.49635342      21.48938531        1      -0.00327462      -0.00192221      -0.00087472
Al       9.89154592       2.57587847      21.85084602        1      -0.00245627      -0.00398226      -0.00281081
Al       2.90777763       4.97020347      21.60830499        1      -0.00224889      -0.00292978      -0.00221293
Al       5.75646286       4.94606438      21.54259588        1      -0.00834200       0.00249345      -0.01117633
Al       8.56013408       4.99997686      21.57386874        1      -0.00059712       0.00830229      -0.00709900
Al      11.47292228       5.01500679      21.56547494        1      -0.00141825      -0.00571576      -0.00138742
Al       4.30210976       7.42304172      21.68968163        1      -0.00260246       0.00025594      -0.00331864
Al       7.14141114       7.39876347      21.67953199        1      -0.00206954       0.00378655      -0.01059091
Al       9.99518542       7.42642885      21.62786240        1       0.00273889       0.00142878      -0.00482041
Al      12.89221543       7.40843349      21.82529927        1      -0.00200354      -0.00227518       0.01437913
C        5.85381485       3.84231120      24.91364261        0       0.00979087      -0.02880231      -0.04208259
N        6.92906860       3.11789404      24.61731339        0      -0.03784920       0.01086039       0.01482473
C        7.99727959       3.95403046      24.66395492        0       0.00628448      -0.00377842       0.00596141
S        9.57791024       3.58329466      24.12440462        0       0.00589174       0.00149329       0.02564318
N        7.58906045       5.19195180      25.13788868        0       0.10784480       0.00683185      -0.03752833
N        6.17263270       5.16250694      25.22970098        0      -0.01320480      -0.00581772      -0.00572182
H        4.82618082       3.49032727      24.87832033        0       0.01545010       0.02366659      -0.01043293
H        8.01340608       6.05090386      24.77785128        0      -0.03775616      -0.03940621       0.02208409
H        5.73013768       5.87781760      24.62861379        0       0.02419599      -0.00675393       0.02473988
