105
Lattice="11.45512985522207 0.0 0.0 5.727564927611035 9.92043345827187 0.0 0.0 0.0 31.691342951089922" Properties=species:S:1:pos:R:3:tags:I:1:forces:R:3 energy=-424.212158203125 free_energy=-424.212158203125 stress="0.0058663105592131615 9.927898645401e-07 -2.738088369369507e-07 9.927898645401e-07 0.005923245567828417 1.8826685845851898e-06 -2.738088369369507e-07 1.8826685845851898e-06 0.006103353574872017" pbc="T T F"
Al       1.42811696       0.83088311       9.99835472        6      -0.00028288       0.00066846       0.00096906
Al       4.29190949       0.83088509       9.99836710        6      -0.00025974       0.00066641       0.00103783
Al       7.15567791       0.83089128       9.99838982        6      -0.00025225       0.00064327       0.00102852
Al      10.01946490       0.83090226       9.99843000        6      -0.00027576       0.00065236       0.00100029
Al       2.85997802       3.31101748       9.99832423        6      -0.00026976       0.00070793       0.00102023
Al       5.72379490       3.31098156       9.99829080        6      -0.00026876       0.00068527       0.00101659
Al       8.58755258       3.31098672       9.99828492        6      -0.00026332       0.00068769       0.00102168
Al      11.45132507       3.31101205       9.99835584        6      -0.00026637       0.00070927       0.00101916
Al       4.29187134       5.79114982       9.99835443        6      -0.00027483       0.00075123       0.00099244
Al       7.15567578       5.79112264       9.99835090        6      -0.00027498       0.00071907       0.00101119
Al      10.01945755       5.79112641       9.99834102        6      -0.00025009       0.00070722       0.00104342
Al      12.88319026       5.79115736       9.99843150        6      -0.00024964       0.00074079       0.00105969
Al       5.72375738       8.27125186       9.99838110        6      -0.00028005       0.00071217       0.00105162
Al       8.58758712       8.27123035       9.99834165        6      -0.00027524       0.00069921       0.00103254
Al      11.45136128       8.27123248       9.99839075        6      -0.00022847       0.00069719       0.00110072
Al      14.31509633       8.27126289       9.99844468        6      -0.00023447       0.00071545       0.00110525
Al       0.00578408       1.65725849      12.39053746        5       0.00077470       0.00010199       0.00712451
Al       2.86962119       1.65720371      12.39195034        5       0.00053080       0.00017075       0.00576596
Al       5.73329627       1.65722034      12.39245461        5       0.00084983      -0.00005407       0.00493247
Al       8.59728018       1.65703353      12.39169994        5       0.00078410       0.00007229       0.00602469
Al       1.43756319       4.13778743      12.39140725        5       0.00079848       0.00001479       0.00629874
Al       4.30155338       4.13759239      12.39231960        5       0.00060068       0.00016173       0.00485156
Al       7.16534380       4.13777859      12.39262088        5       0.00084040      -0.00004502       0.00465091
Al      10.02907633       4.13770101      12.39194104        5       0.00096703       0.00007460       0.00590624
Al       2.86963389       6.61772902      12.39072278        5       0.00067044       0.00040477       0.00693515
Al       5.73341675       6.61783692      12.39149600        5       0.00071012       0.00041323       0.00572401
Al       8.59729550       6.61778750      12.39162925        5       0.00087025       0.00049991       0.00621189
Al      11.46122491       6.61769069      12.39138970        5       0.00074776       0.00052044       0.00686742
Al       4.30138202       9.09763440      12.39088516        5       0.00076733       0.00010691       0.00680073
Al       7.16554273       9.09772764      12.39109350        5       0.00054839       0.00008355       0.00648985
Al      10.02923033       9.09785481      12.39229263        5       0.00089794      -0.00014679       0.00625171
Al      12.89295543       9.09780673      12.39181401        5       0.00085151      -0.00008265       0.00665944
Al       0.00021103       0.00409678      14.69832381        4       0.00003771       0.00066596       0.00183005
Al       2.86373473       0.00412969      14.69706485        4      -0.00006991       0.00062568       0.00202161
Al       5.72776908       0.00392705      14.69805686        4       0.00004628       0.00057638       0.00200155
Al       8.59129529       0.00388676      14.69880606        4      -0.00001137       0.00060902       0.00187812
Al       1.43161288       2.48422821      14.69640398        4      -0.00012141       0.00056453       0.00160691
Al       4.29536657       2.48422818      14.69445492        4       0.00001137       0.00040634       0.00116563
Al       7.15960206       2.48417318      14.69407777        4       0.00018059       0.00042411       0.00139932
Al      10.02356247       2.48423673      14.69556586        4       0.00019881       0.00053874       0.00140447
Al       2.86346016       4.96466578      14.69617532        4      -0.00009346       0.00072041       0.00173896
Al       5.72755617       4.96480600      14.69406816        4       0.00003913       0.00063436       0.00141619
Al       8.59158076       4.96486143      14.69425283        4       0.00020280       0.00067461       0.00164438
Al      11.45476459       4.96474344      14.69623989        4      -0.00002094       0.00072373       0.00202502
Al       4.29555215       7.44441981      14.69789624        4      -0.00009219       0.00071426       0.00188431
Al       7.15957335       7.44465506      14.69641626        4       0.00007718       0.00075093       0.00176340
Al      10.02327751       7.44436310      14.69737935        4      -0.00000790       0.00070569       0.00214479
Al      12.88690111       7.44444428      14.69909721        4      -0.00008970       0.00071363       0.00214159
Al       1.42859522       0.82944273      17.02086623        3      -0.00159234      -0.00805277      -0.01740133
Al       4.29239304       0.82800786      17.01715847        3       0.00033185      -0.00567082      -0.02722373
Al       7.15734891       0.82816493      17.01949499        3       0.00299891      -0.00882225      -0.01567234
Al      10.02086964       0.82943930      17.01897619        3       0.00175973      -0.00367684      -0.02237045
Al       2.85904633       3.30852929      17.01227117        3      -0.00077441      -0.00236712      -0.03457917
Al       5.72395827       3.30772978      17.00770762        3       0.00023309      -0.00188994      -0.02787769
Al       8.59362802       3.30841406      17.01002265        3       0.00600397      -0.00193063      -0.02486785
Al      11.45195259       3.30986415      17.01771943        3      -0.00243103      -0.00231278      -0.02312058
Al       4.29236956       5.79065081      17.01604542        3      -0.00074217      -0.00107405      -0.01694599
Al       7.15734023       5.79118110      17.01081182        3       0.00095913      -0.00154151      -0.01788055
Al      10.02104519       5.78888380      17.01860238        3       0.00216030      -0.00609452      -0.01437729
Al      12.88430937       5.79149824      17.02096910        3       0.00099680      -0.00008664      -0.01459537
Al       5.72510329       8.27174323      17.01933942        3       0.00273176       0.00046362      -0.01622473
Al       8.58816951       8.27112057      17.01953094        3      -0.00163713      -0.00162055      -0.01600350
Al      11.45252981       8.27161448      17.02299402        3       0.00230820      -0.00151855      -0.00450071
Al      14.31592940       8.27185554      17.02351071        3      -0.00145971      -0.00093144      -0.00121700
Al      -0.00984016       1.66806222      19.28053310        2      -0.00225692       0.00012648       0.00675529
Al       2.86550522       1.66707787      19.26887368        2      -0.00311868      -0.00101376      -0.00108289
Al       5.73240935       1.66940654      19.26065389        2       0.00064059      -0.00377197      -0.00653839
Al       8.59275676       1.67732773      19.26989884        2       0.00297368      -0.00485035       0.00423067
Al       1.42903125       4.11876297      19.26852981        2      -0.00053651      -0.00180035       0.00697389
Al       4.28671342       4.12592843      19.26236937        2       0.00181660       0.00271830      -0.00544335
Al       7.17825011       4.11752984      19.24961535        2      -0.00498976       0.01108264       0.01409672
Al      10.02459660       4.11995372      19.31377711        2       0.00267638      -0.00286502       0.02297336
Al       2.86952576       6.61098611      19.30613722        2       0.00115764       0.00198276       0.00301495
Al       5.73458477       6.62484281      19.27538458        2       0.00057288      -0.00126001      -0.00320223
Al       8.59069309       6.61228797      19.27714019        2       0.00142304      -0.00024394      -0.00290051
Al      11.45059490       6.60504581      19.28959917        2       0.00179771       0.00453684       0.00996674
Al       4.30935518       9.10641818      19.28560112        2       0.00026514       0.00414887       0.00275495
Al       7.16068736       9.09954597      19.32301891        2       0.00034172       0.00297756      -0.00581632
Al      10.00644988       9.10676135      19.28377328        2       0.00137587       0.00079736       0.00701417
Al      12.88677799       9.09878831      19.33543067        2       0.00006659       0.00013378      -0.00047994
Al      -0.01039393      -0.00733351      21.69955585        1      -0.00484454      -0.00343588       0.00766301
Al       2.86339982      -0.01186917      21.70224660        1      -0.00001990      -0.00530309       0.01264610
Al       5.72112860       0.02399394      21.67660846        1      -0.00187198      -0.00255113       0.00510316
Al       8.56916021       0.03257747      21.68687003        1      -0.00280111       0.00368440       0.00510577
Al       1.42515139       2.51934058      21.70077269        1      -0.00553201       0.00208282       0.00871281
Al       4.32443169       2.48639339      21.57658557        1      -0.01248724       0.00614602      -0.00480971
Al       7.13911540       2.48441520      21.58922247        1      -0.01088764       0.00426674      -0.01660116
Al       9.96884322       2.53203733      21.77327816        1      -0.01437636       0.00818919       0.02088301
Al       2.89814036       4.96367414      21.66306309        1       0.00146649      -0.00070517      -0.02234815
Al       5.75835761       4.93841221      21.50252258        1      -0.00200192       0.00160359       0.03420067
Al       8.56991208       4.96877515      21.55940518        1       0.00041834       0.00487718       0.03072318
Al      11.45203731       4.98680597      21.64479719        1       0.00359836       0.00607354      -0.01373823
Al       4.31693907       7.41698854      21.70257598        1      -0.00259145       0.00435659      -0.00961039
Al       7.15797481       7.40752190      21.65568792        1      -0.00332897       0.00039844       0.00665491
Al       9.99866413       7.41803190      21.66534375        1       0.00315449       0.00828564      -0.01702766
Al      12.89049680       7.43012539      21.71421836        1       0.00117866      -0.00463053       0.01621183
C        5.85782264       3.85409196      24.84915691        0      -0.06300932      -0.11682660      -0.00092654
N        6.96244043       3.13354939      24.76128144        0       0.13875400      -0.02293809      -0.01535777
C        8.01608959       4.01332248      24.80680577        0      -0.06921800       0.00219253      -0.07803252
S        9.61208602       3.70936603      24.36171100        0      -0.06253995      -0.01935840      -0.04147668
N        7.50549996       5.28928784      25.08659993        0       0.02785805       0.03018783       0.04465383
N        6.08625860       5.18701039      25.08614453        0       0.20885722      -0.20047650       0.13329519
H        4.87440649       3.43997740      24.67658004        0      -0.29857251       0.01776104       0.04643717
H        7.86438177       6.05533046      24.51430013        0       0.09813361       0.18956752       0.00174598
H        5.55793331       5.87356453      24.54049545        0       0.04631692       0.09747625      -0.05363355
