105
Lattice="11.45512985522207 0.0 0.0 5.727564927611035 9.92043345827187 0.0 0.0 0.0 31.691342951089922" Properties=species:S:1:pos:R:3:tags:I:1:forces:R:3 energy=-424.50079345703125 free_energy=-424.50079345703125 stress="0.006599822081625462 1.0021030902862549e-06 -3.166496753692627e-07 1.0021030902862549e-06 0.006649026647210121 2.0763836801052094e-06 -3.166496753692627e-07 2.0763836801052094e-06 0.0068282135762274265" pbc="T T F"
Al       1.40832549       0.89338615       9.94915368        6      -0.00025243       0.00013449       0.00199719
Al       4.27173168       0.89080697       9.95909773        6      -0.00018506       0.00015368       0.00160872
Al       7.13601742       0.89016957       9.96444207        6      -0.00005083       0.00024852       0.00154598
Al       9.99938693       0.89279069       9.96004341        6      -0.00000600       0.00025773       0.00156055
Al       2.83700856       3.37657253       9.95753887        6      -0.00015566      -0.00005247       0.00178135
Al       5.70072112       3.37335007       9.95447874        6      -0.00009968       0.00012659       0.00148317
Al       8.56660173       3.37304152       9.95558317        6      -0.00003611       0.00017664       0.00133379
Al      11.43167016       3.37572377       9.95559605        6      -0.00016065       0.00003879       0.00178565
Al       4.26930670       5.85790358       9.96925672        6      -0.00007062      -0.00016825       0.00140976
Al       7.13528743       5.85560665       9.96338466        6      -0.00018778      -0.00013524       0.00104676
Al      10.00156001       5.85528808       9.96711569        6      -0.00024841      -0.00012439       0.00156331
Al      12.86425668       5.85780006       9.97871075        6      -0.00021565      -0.00010643       0.00140747
Al       5.70359897       8.33584243       9.96617877        6      -0.00010170      -0.00006111       0.00145459
Al       8.56931604       8.33435902       9.96513210        6      -0.00025765      -0.00019121       0.00152487
Al      11.43433364       8.33354106       9.97917935        6      -0.00021312      -0.00017388       0.00155755
Al      14.29605967       8.33577320       9.97956759        6      -0.00003175      -0.00001308       0.00150396
Al       0.01635562       1.69998569      12.35430753        5      -0.00071307      -0.00068583       0.00224138
Al       2.87309708       1.70142010      12.36140095        5       0.00057694      -0.00256399      -0.01157130
Al       5.73815597       1.70248258      12.35386835        5       0.00063783      -0.00419665      -0.00403568
Al       8.60639562       1.70137491      12.34275817        5       0.00046675      -0.00196939       0.01002644
Al       1.44647875       4.17774042      12.35721713        5      -0.00073927       0.00045538       0.00435972
Al       4.30895465       4.17938330      12.35303233        5      -0.00128863      -0.00030967       0.00135338
Al       7.17222574       4.17927850      12.34058325        5       0.00080869       0.00042270       0.00819372
Al      10.03777816       4.17803542      12.34956241        5       0.00105300       0.00077653       0.00659609
Al       2.88070690       6.65792381      12.36777274        5      -0.00070498       0.00174531       0.00516362
Al       5.74235698       6.65913405      12.35387148        5      -0.00108106       0.00253790       0.00598388
Al       8.60097895       6.65966732      12.35672296        5       0.00282291       0.00208234       0.00198660
Al      11.46798815       6.65708424      12.37093709        5       0.00025325       0.00178466       0.00126783
Al       4.31570781       9.14081139      12.36519896        5      -0.00164354       0.00134076       0.00404060
Al       7.17046840       9.14101669      12.36762991        5      -0.00032387       0.00147428      -0.01387909
Al      10.03401401       9.13898155      12.37218964        5      -0.00043123       0.00045113      -0.01755095
Al      12.90470568       9.13683673      12.37502106        5      -0.00099554       0.00220334      -0.00449766
Al       0.02192616       0.03957978      14.67337350        4      -0.00018290       0.00032790       0.00317353
Al       2.87189856       0.03135927      14.64750090        4       0.00154069       0.00313850       0.00849428
Al       5.74146420       0.03142499      14.64382321        4       0.00055562       0.00014567       0.00959234
Al       8.61875219       0.03452320      14.66656769        4      -0.00032458       0.00025076       0.00320629
Al       1.44479809       2.51361857      14.65798109        4       0.00013717      -0.00005825       0.00343884
Al       4.30941225       2.51145867      14.64169882        4      -0.00029156      -0.00020626       0.00461016
Al       7.17879363       2.50926216      14.63876001        4      -0.00015644       0.00013117       0.00313001
Al      10.04417414       2.51605954      14.65041337        4      -0.00027803      -0.00003749       0.00308341
Al       2.88106690       4.99432806      14.66076564        4      -0.00006592       0.00013941       0.00309332
Al       5.74738907       4.99997745      14.63589230        4      -0.00085997      -0.00066980       0.00362763
Al       8.61386799       4.99901131      14.64002516        4      -0.00046175      -0.00072596       0.00418955
Al      11.47694025       4.99599842      14.66474487        4      -0.00043432      -0.00005825       0.00267768
Al       4.32222839       7.48273972      14.66943260        4      -0.00037671       0.00019672       0.00318881
Al       7.17943713       7.48308419      14.65999393        4      -0.00034042       0.00013997       0.00304342
Al      10.03340726       7.47442190      14.66641502        4       0.00142371       0.00109861       0.00314788
Al      12.90831594       7.46833445      14.67241626        4      -0.00048214       0.00089324       0.00327225
Al       1.41528411       0.83870980      17.02713962        3       0.00006518       0.00076677       0.00321458
Al       4.26497369       0.83439923      16.97303343        3      -0.00013788       0.00032689       0.00322872
Al       7.15134353       0.83097737      16.97203965        3      -0.00037183       0.00043343       0.00373357
Al      10.02300602       0.84278048      17.00460144        3      -0.00005720       0.00039911       0.00320832
Al       2.84029981       3.30516155      16.97705190        3      -0.00018390       0.00022851       0.00341814
Al       5.71333722       3.31162088      16.94731535        3      -0.00187287       0.00011612       0.00232281
Al       8.57814741       3.30552766      16.95277136        3      -0.00029961       0.00268845       0.00129942
Al      11.44087108       3.31088049      16.98285377        3      -0.00010099       0.00030632       0.00322399
Al       4.27885535       5.81196531      16.97039761        3      -0.00020138       0.00021781       0.00319349
Al       7.14392281       5.81688738      16.94566318        3       0.00149042       0.00062736       0.00133310
Al      10.03443750       5.82831802      16.96694023        3      -0.01094987      -0.00867383       0.00727020
Al      12.87695778       5.79824834      16.98923636        3      -0.00000797       0.00037448       0.00341809
Al       5.72632368       8.30910789      17.00272869        3      -0.00045750       0.00013315       0.00322006
Al       8.57985146       8.31233508      16.98600109        3      -0.00037205      -0.00091985       0.00482896
Al      11.44566885       8.29665583      17.00638883        3      -0.00319832      -0.00205048      -0.00115747
Al      14.29954261       8.28624617      16.99845414        3       0.00253451      -0.00031657       0.00324061
Al      -0.06312197       1.67931795      19.38669944        2      -0.00210280       0.00061901      -0.00936845
Al       2.78147556       1.65474367      19.39519616        2      -0.00157378      -0.00155943      -0.01116703
Al       5.63941147       1.66358551      19.24507249        2      -0.00010662      -0.00215210      -0.00394928
Al       8.55364714       1.67678127      19.29023937        2       0.00064961       0.00342787      -0.00839113
Al       1.35461707       4.13629748      19.29173576        2      -0.00230664      -0.00000451      -0.00888669
Al       4.23597088       4.13972812      19.25148864        2      -0.00358621      -0.00105293      -0.00660546
Al       7.09903998       4.17949438      19.22076798        2       0.00580330      -0.01413611      -0.01075937
Al       9.94440375       4.13526082      19.22567825        2       0.00208778      -0.00324143       0.00038670
Al       2.80057595       6.63968132      19.32585887        2       0.00072768      -0.00051433      -0.00260524
Al       5.68988702       6.64270318      19.23643388        2      -0.00213089       0.00485352      -0.00121078
Al       8.53725428       6.63297008      19.25462015        2      -0.00214151       0.00782571      -0.01365399
Al      11.42358973       6.64716173      19.32658650        2       0.00086727       0.00061789      -0.00027742
Al       4.22707942       9.11089330      19.33065849        2      -0.00047051       0.00113767      -0.01039747
Al       7.11170152       9.14100045      19.37450373        2      -0.00021942      -0.00092101      -0.01152340
Al       9.97147372       9.12515108      19.35512116        2      -0.00197796       0.00115939      -0.00383005
Al      12.82304460       9.10844272      19.31582561        2       0.00129526      -0.00165025       0.01661508
Al      -0.23444898      -0.03061328      21.86050637        1      -0.00599495       0.00277100       0.00654357
Al       2.71272432       0.02367124      22.08069330        1      -0.00162890       0.00101607       0.00832439
Al       5.58389728       0.11401113      21.71552369        1      -0.00113252       0.00038376       0.00261320
Al       8.41454052       0.01705368      21.63890364        1      -0.00325783       0.01153351      -0.00775917
Al       1.22504659       2.61284597      21.88309095        1      -0.00156070      -0.00104782       0.00285924
Al       4.14690028       2.53309565      21.62095512        1       0.00472812      -0.00199722      -0.00203808
Al       6.98781505       2.54477417      21.48888789        1       0.00295535      -0.00795424       0.00200417
Al       9.77981699       2.58918347      21.91032083        1      -0.00879021      -0.01065901       0.01601226
Al       2.74164600       4.99695083      21.63957417        1       0.00073643      -0.00170875       0.00147376
Al       5.61614049       4.99821060      21.49712831        1       0.00558142      -0.00459468       0.00301059
Al       8.43216537       5.02294749      21.53664016        1      -0.00463626      -0.00378181      -0.00858529
Al      11.23279688       4.99568671      21.59346800        1      -0.00217721      -0.00090789       0.00131469
Al       4.14714591       7.40973128      21.69644428        1       0.00017153       0.00153782       0.00280487
Al       6.99113845       7.46423791      21.69027350        1       0.00063384      -0.00254886       0.00231528
Al       9.83321194       7.41797681      21.59825009        1       0.00032473      -0.00384811       0.01146254
Al      12.70147935       7.43271611      22.11674463        1       0.00317909       0.00002802      -0.00134039
C        6.09885803       3.86150260      24.70061401        0       0.03632323       0.01653699       0.00202746
N        6.96532336       2.89466290      24.40386416        0       0.01184647      -0.00585461       0.00438260
C        8.20863124       3.37865699      24.68062714        0      -0.00387416       0.02224593       0.00132675
S        9.72957879       2.67945712      24.37490438        0      -0.01838915      -0.03831282      -0.02116766
N        8.09895057       4.67888920      25.12124415        0       0.04641425       0.03516943      -0.04969154
N        6.73084084       4.97347777      25.25164867        0      -0.03665173      -0.02737290      -0.00234517
H        5.02922857       3.84720756      24.51418302        0      -0.01396212      -0.01659214      -0.02063541
H        8.76548702       5.10334345      25.75814356        0       0.01363571       0.00779266       0.02589353
H        6.46758244       5.87977577      24.84841662        0      -0.00099353       0.02874251      -0.03338928
