105
Lattice="11.45512985522207 0.0 0.0 5.727564927611035 9.92043345827187 0.0 0.0 0.0 31.691342951089922" Properties=species:S:1:pos:R:3:tags:I:1:forces:R:3 energy=-424.34112548828125 free_energy=-424.34112548828125 stress="0.006563956383615732 1.4258548617362976e-06 -1.0291114449501038e-07 1.4258548617362976e-06 0.006617120001465082 1.28941610455513e-06 -1.0291114449501038e-07 1.28941610455513e-06 0.006727638188749552" pbc="T T F"
Al       1.40236113       0.88345642       9.96755682        6       0.00097733       0.00161052      -0.00172195
Al       4.26680534       0.88129233       9.97751766        6       0.00090366       0.00160851      -0.00128021
Al       7.12938862       0.88138568       9.98119147        6       0.00090321       0.00155910      -0.00095635
Al       9.99233633       0.88328118       9.97499684        6       0.00095244       0.00159718      -0.00092254
Al       2.83217917       3.36487500       9.97530936        6       0.00087564       0.00193316      -0.00121633
Al       5.69708506       3.36227565       9.97957953        6       0.00069419       0.00176797      -0.00134229
Al       8.55984874       3.36269154       9.97916117        6       0.00103338       0.00179566      -0.00102759
Al      11.42422926       3.36547110       9.97624982        6       0.00104586       0.00182223      -0.00120081
Al       4.26431581       5.84424259       9.98247139        6       0.00084862       0.00216939      -0.00052447
Al       7.13075512       5.84231678       9.98310074        6       0.00084366       0.00212404      -0.00089774
Al       9.99409745       5.84313106       9.98729368        6       0.00109066       0.00202573      -0.00108917
Al      12.85714923       5.84549498       9.99083457        6       0.00109759       0.00205383      -0.00049583
Al       5.69788245       8.32295075       9.96921840        6       0.00087765       0.00214166       0.00026065
Al       8.56313761       8.32110053       9.97547731        6       0.00102950       0.00219588      -0.00041584
Al      11.42667341       8.32155638       9.98537831        6       0.00105421       0.00207421      -0.00004436
Al      14.28816558       8.32445396       9.98151780        6       0.00097942       0.00202629       0.00051543
Al       0.01124137       1.69388111      12.35477146        5      -0.00161900      -0.00025776      -0.01268001
Al       2.87013733       1.69140902      12.35457915        5      -0.00162467       0.00528561      -0.00770758
Al       5.72854153       1.68929839      12.36993810        5       0.00453190       0.00335192      -0.02892704
Al       8.59498248       1.68737832      12.37115916        5       0.00340907       0.00166851      -0.03000246
Al       1.44080542       4.18135261      12.38003554        5      -0.00001481      -0.00312181      -0.03483203
Al       4.29727749       4.18025862      12.37188557        5       0.00156869      -0.00145107      -0.04002659
Al       7.16419054       4.17673086      12.36946188        5       0.00178893      -0.00078752      -0.03173978
Al      10.03382594       4.17814092      12.37696180        5       0.00210483      -0.00323938      -0.04610100
Al       2.87067151       6.66631679      12.39729685        5       0.00097886      -0.00500806      -0.04022079
Al       5.72906491       6.66660774      12.37728516        5       0.00234098      -0.00237360      -0.03287422
Al       8.60124085       6.66654113      12.37175830        5      -0.00032385      -0.00432204      -0.02410272
Al      11.46619818       6.66551728      12.38809251        5       0.00269570      -0.00501916      -0.02529334
Al       4.29880486       9.13722403      12.38718066        5       0.00293174       0.00169310      -0.01819495
Al       7.17120781       9.14347563      12.35902280        5      -0.00364198      -0.00098689      -0.00289585
Al      10.03532465       9.14263970      12.37412823        5      -0.00090649      -0.00217539      -0.00074174
Al      12.89432517       9.14006573      12.40206141        5       0.00170438      -0.00129396      -0.02845724
Al       0.01463349       0.03318668      14.66577143        4       0.00406866       0.00174181       0.00381608
Al       2.87565829       0.03653462      14.67066650        4       0.00055769       0.00185163       0.00087614
Al       5.73943434       0.03530823      14.69552706        4      -0.00008211      -0.00079859      -0.00116308
Al       8.60640103       0.03145061      14.70529019        4       0.00052266      -0.00125360      -0.00397231
Al       1.44809043       2.50092921      14.64959268        4      -0.00093310      -0.00012689       0.00072147
Al       4.29875213       2.50142284      14.63528226        4      -0.00056701      -0.00012599       0.00723120
Al       7.16256250       2.48979359      14.63948062        4       0.00343385       0.00459613       0.00289855
Al      10.04450019       2.48333533      14.63133057        4      -0.00113839       0.01209793       0.01423987
Al       2.87987939       4.98741593      14.66984765        4       0.00000293       0.00195254       0.00014485
Al       5.73155217       4.98780064      14.64151984        4       0.00315097       0.00255635       0.00113929
Al       8.61188383       4.98949884      14.63636298        4      -0.00142004       0.00129645       0.00479792
Al      11.47729674       4.98610643      14.66932110        4      -0.00032128       0.00159584      -0.00181241
Al       4.31022503       7.47589497      14.69256624        4       0.00037699       0.00279831      -0.00078076
Al       7.16945815       7.48648296      14.64437417        4       0.00450392       0.00174498       0.00684262
Al      10.04300521       7.47441063      14.66769125        4       0.00029248       0.00343376       0.00112017
Al      12.90518527       7.47880164      14.68650811        4       0.00020617       0.00237364       0.00424528
Al       1.42507212       0.83813911      17.03546138        3      -0.01320517      -0.01150579      -0.02396053
Al       4.27780127       0.81923055      17.00269604        3      -0.01016982       0.00988673      -0.02418856
Al       7.15298659       0.82055027      17.01958966        3       0.00174812      -0.00130946      -0.02773357
Al      10.04075929       0.83068856      16.99729127        3       0.00081422       0.00401777       0.00380408
Al       2.83850992       3.28150448      16.95532949        3       0.00923320       0.00948721       0.01128842
Al       5.69949851       3.29213405      16.91662205        3       0.00487307       0.00842329       0.00649617
Al       8.58940407       3.28916446      16.90713858        3      -0.00028566       0.01726563       0.00875385
Al      11.46600323       3.28620284      16.94855713        3      -0.02426591       0.01053690       0.01796730
Al       4.28874604       5.80174259      16.96562098        3       0.00099448       0.00000186       0.00195195
Al       7.15551807       5.82193517      16.91231078        3       0.00059145      -0.00433855       0.00871991
Al      10.03808614       5.81805258      16.94005492        3      -0.01442535      -0.02163530       0.01855979
Al      12.89278172       5.80576762      16.97433454        3      -0.00271463      -0.00205510       0.00385696
Al       5.73623886       8.30202818      16.98610214        3       0.00149107       0.00356765       0.00310707
Al       8.59579702       8.30989832      16.97803926        3      -0.01568040      -0.00564429      -0.00163188
Al      11.45229311       8.28432621      17.02168914        3       0.00127266       0.00005269      -0.00959780
Al      14.31600620       8.28729933      17.04210330        3       0.00705807      -0.00120776      -0.02541950
Al      -0.03957571       1.65858575      19.42755399        2      -0.00252902       0.00603467       0.01736807
Al       2.79452750       1.61297117      19.34598439        2      -0.00306619       0.01262613       0.01625884
Al       5.65885591       1.65488835      19.22404750        2      -0.00254590      -0.00512813       0.02761458
Al       8.56642453       1.69060858      19.24251182        2       0.00128444       0.00444752       0.01909906
Al       1.38050317       4.12290954      19.23846485        2      -0.00110713      -0.00353061       0.03137070
Al       4.23941017       4.09662179      19.22291507        2       0.00132748       0.01458996       0.00758654
Al       7.11110581       4.15586136      19.15633273        2       0.00977060      -0.00295162       0.02584501
Al       9.98261572       4.11862929      19.17963074        2      -0.00775075       0.00628498       0.05197624
Al       2.82626445       6.59820857      19.28772861        2      -0.00278525       0.00725570       0.02460011
Al       5.68526241       6.65567243      19.22890192        2       0.00667632       0.00042806       0.02779700
Al       8.56329226       6.65903232      19.20197568        2      -0.00777863      -0.00312874       0.03106030
Al      11.42063841       6.61702469      19.29803510        2       0.00316957       0.01038474       0.00230464
Al       4.27320257       9.13935209      19.33556322        2      -0.00370454      -0.00239685       0.02510120
Al       7.14084419       9.12601251      19.38809625        2      -0.00605884       0.00477601       0.01491320
Al       9.98601984       9.11227706      19.32902304        2      -0.00117920      -0.00268942       0.01482684
Al      12.83216943       9.05867106      19.36654905        2      -0.00011927       0.00648096      -0.00721656
Al      -0.42541824      -0.02746166      22.09398208        1       0.08361596       0.00148710      -0.07453068
Al       2.73313070      -0.05284092      22.20240642        1      -0.00501907       0.00894057      -0.03275885
Al       5.61317030       0.09287570      21.72160644        1      -0.00628232      -0.00200542      -0.00439346
Al       8.39665079       0.07693987      21.59110894        1      -0.01818678       0.02237457       0.01055855
Al       1.23137111       2.59717495      21.92529813        1       0.00166663      -0.01058184      -0.02518831
Al       4.15840043       2.49360070      21.57178617        1      -0.00588832       0.00370385       0.01456637
Al       6.98674139       2.54220418      21.49894404        1       0.01068195       0.00581664      -0.00820600
Al       9.75628484       2.65829457      22.00928259        1       0.02408140      -0.04527841      -0.12113988
Al       2.74738860       4.97326502      21.62133773        1      -0.00144229      -0.00207101       0.00165569
Al       5.62774566       4.99046137      21.47158917        1       0.00420624      -0.00087241       0.01709518
Al       8.45722256       5.04746184      21.44409119        1      -0.01944209      -0.00660792       0.00944274
Al      11.24880009       5.02884517      21.55724486        1       0.02958978      -0.01892222      -0.00441444
Al       4.13477202       7.40186643      21.64615747        1       0.00681745       0.00968017       0.00435102
Al       7.02284473       7.45264284      21.60657004        1      -0.02253005       0.01800788       0.02523127
Al       9.85888002       7.47234226      21.65450256        1       0.02294530       0.00702078      -0.00911570
Al      12.72704373       7.42894761      22.00253555        1      -0.00312295      -0.00083288       0.00736368
C        6.08531783       3.87735117      24.70231025        0       0.04588052       0.07458936       0.01968552
N        6.99716289       2.97055816      24.35118560        0       0.04302538       0.10661149       0.06986289
C        8.20937141       3.47598861      24.69337561        0      -0.00432750      -0.01991608       0.01079708
S        9.74091107       2.80222935      24.35119475        0      -0.00946774      -0.01493146       0.11426792
N        8.05662010       4.66212945      25.38653563        0      -0.08478986       0.15648107      -0.05533843
N        6.66431251       4.97576072      25.34779791        0       0.04140625       0.00133446      -0.10618430
H        5.02730109       3.84499939      24.44524456        0       0.07406454      -0.01959373       0.05380752
H        8.71402633       5.43830544      25.24357915        0      -0.19286136      -0.24127139       0.08510228
H        6.47490152       5.89567154      24.91697070        0       0.01065974      -0.15040053       0.07181589
