105
Lattice="11.45512985522207 0.0 0.0 5.727564927611035 9.92043345827187 0.0 0.0 0.0 31.691342951089922" Properties=species:S:1:pos:R:3:tags:I:1:forces:R:3 energy=-424.27685546875 free_energy=-424.27685546875 stress="0.005686365533620119 1.3737007975578308e-06 -2.2957101464271545e-07 1.3737007975578308e-06 0.005743973422795534 1.07521191239357e-06 -2.2957101464271545e-07 1.07521191239357e-06 0.005820054095238447" pbc="T T F"
Al       1.41718750       0.89106022      10.00251992        6       0.00020688       0.00023440      -0.00048447
Al       4.28235083       0.88999493      10.01177128        6       0.00038892       0.00016631      -0.00011189
Al       7.14473217       0.88950794      10.01578209        6       0.00038664       0.00021267       0.00027416
Al      10.00855626       0.88999846      10.00929132        6       0.00026564       0.00020201      -0.00004964
Al       2.84775021       3.37247650      10.01355829        6       0.00033615       0.00019456      -0.00002651
Al       5.71054258       3.37163053      10.01369001        6       0.00040080       0.00016877       0.00033384
Al       8.57546037       3.37080468      10.01225253        6       0.00036309       0.00015446       0.00009849
Al      11.44019092       3.37279232      10.01180048        6       0.00029404       0.00020757      -0.00015029
Al       4.27965690       5.85023024      10.02001963        6       0.00035407       0.00021442       0.00046926
Al       7.14413946       5.84890328      10.01482192        6       0.00037930       0.00020295       0.00047252
Al      10.00970910       5.85043274      10.01951702        6       0.00042160       0.00022814       0.00046110
Al      12.87274788       5.85126191      10.02710634        6       0.00033917       0.00027736       0.00043747
Al       5.71260188       8.32871409      10.01086599        6       0.00026024       0.00016069       0.00013369
Al       8.57814138       8.32840142      10.01176220        6       0.00036883       0.00019396       0.00012827
Al      11.44248285       8.32856972      10.02406083        6       0.00040837       0.00015763       0.00041465
Al      14.30459134       8.32916044      10.02311155        6       0.00031990       0.00017816       0.00034170
Al       0.01435079       1.69534096      12.38401848        5       0.00076138      -0.00125140       0.00385323
Al       2.87321962       1.69566274      12.38618570        5       0.00280936      -0.00008429       0.00319164
Al       5.74304358       1.69558094      12.39603509        5      -0.00209659      -0.00216410       0.00024660
Al       8.60921295       1.69385808      12.39217231        5      -0.00202549      -0.00163601       0.00424042
Al       1.44467871       4.17324983      12.39381657        5       0.00138222       0.00194028       0.00744902
Al       4.30824591       4.17657150      12.39965899        5      -0.00005539       0.00001230       0.00102777
Al       7.17908596       4.17282586      12.38434125        5      -0.00214436       0.00139763       0.01015780
Al      10.04147861       4.17217548      12.39029994        5       0.00040494       0.00259633       0.00682963
Al       2.87680271       6.65773591      12.41554974        5       0.00029881      -0.00176227      -0.00092291
Al       5.74201033       6.65751347      12.40388686        5      -0.00154298      -0.00099792      -0.00578887
Al       8.60854556       6.65628751      12.40290888        5       0.00055296       0.00182759      -0.00553780
Al      11.47372120       6.65567073      12.41764407        5      -0.00085052       0.00084040      -0.00144216
Al       4.30881356       9.13467992      12.40396897        5      -0.00083584      -0.00103806      -0.00412191
Al       7.17072639       9.13629322      12.39218197        5       0.00115114      -0.00110629      -0.00830652
Al      10.03503549       9.13348689      12.39892003        5       0.00195931       0.00048005       0.00079250
Al      12.90458282       9.13216153      12.41315477        5      -0.00285740       0.00159517      -0.00484335
Al       0.01301705       0.03063629      14.67491685        4       0.00015437       0.00084584       0.00585336
Al       2.86608167       0.03177487      14.67804525        4       0.00072166       0.00014597       0.00186067
Al       5.73437483       0.02335211      14.69187527        4       0.00059760       0.00048359       0.00190363
Al       8.60043800       0.02556568      14.70523956        4       0.00142805       0.00088005       0.00167460
Al       1.44123038       2.50829266      14.68390140        4       0.00028864       0.00010624       0.00163374
Al       4.29634836       2.50369642      14.68296141        4       0.00034793       0.00015264       0.00067170
Al       7.17010354       2.50043533      14.68692136        4       0.00050582       0.00034731      -0.00250958
Al      10.04498450       2.50530599      14.67862186        4       0.00002540       0.00016464       0.00162536
Al       2.87026950       4.99409979      14.70713365        4       0.00043848      -0.00158224      -0.00126202
Al       5.73966323       4.99490577      14.68347646        4      -0.00042972      -0.00141037      -0.00083751
Al       8.61504184       4.99936935      14.68236184        4      -0.00051871      -0.00186694       0.00013697
Al      11.47684427       4.99485004      14.70865185        4      -0.00229063      -0.00232996      -0.00439909
Al       4.30300997       7.47307613      14.70594912        4       0.00113698       0.00076390       0.00163022
Al       7.17674593       7.48071988      14.68174907        4      -0.00007511       0.00047558       0.00203788
Al      10.04541211       7.47478725      14.70945629        4      -0.00095401       0.00040753      -0.00034468
Al      12.90475549       7.47855125      14.72936731        4      -0.00024042      -0.00033397       0.00028914
Al       1.39873689       0.83871600      17.02664163        3       0.00115766      -0.00230820      -0.00211863
Al       4.25039290       0.81735463      16.98834767        3       0.00031107       0.00039110       0.00179219
Al       7.14151403       0.81667717      17.00904824        3       0.00052937       0.00043593       0.00134616
Al      10.02421734       0.84401322      17.02125315        3      -0.00114797      -0.00439453      -0.00054301
Al       2.82510154       3.29536960      17.00247043        3       0.00189413      -0.00104480      -0.00174684
Al       5.69255184       3.28637395      16.96536891        3       0.00002704       0.00394652      -0.00075154
Al       8.58643715       3.30252599      16.96626265        3      -0.00132591       0.00197110      -0.00381639
Al      11.44543022       3.30386859      17.00702160        3      -0.00316439      -0.00045933      -0.00363055
Al       4.27044745       5.80036319      17.00290931        3       0.00014304      -0.00002743      -0.00095531
Al       7.14283961       5.82113692      16.96035013        3       0.00022763      -0.00169046       0.00075583
Al      10.02526638       5.81295872      17.00472708        3      -0.00148406      -0.00199819       0.00019704
Al      12.86930302       5.79649987      17.03320972        3       0.00111156       0.00209791       0.00095609
Al       5.71679673       8.30506134      17.01213842        3      -0.00087262       0.00115101      -0.00224282
Al       8.57505655       8.29919686      17.01122323        3      -0.00501095       0.00021003      -0.00975306
Al      11.43477993       8.28193597      17.03764834        3       0.00091626       0.00009368       0.00154348
Al      14.31357186       8.28686654      17.04792721        3      -0.00028312      -0.00050494       0.00080780
Al      -0.05493557       1.66490970      19.40473443        2      -0.00174976      -0.00015916       0.00523377
Al       2.75535189       1.62396626      19.34481841        2       0.00603779       0.00101216       0.01204543
Al       5.61819092       1.61767477      19.23240410        2       0.00043397       0.00320100       0.00010512
Al       8.57785624       1.68469219      19.25700716        2      -0.00173430      -0.00028657       0.00041862
Al       1.36561104       4.11216078      19.27559895        2       0.00016630       0.00010934       0.00658983
Al       4.22556650       4.11898757      19.23243440        2      -0.00197328      -0.00333258      -0.00302889
Al       7.11120185       4.14674709      19.17039808        2      -0.00010697      -0.00222465       0.00076589
Al       9.97309444       4.12305252      19.23757828        2       0.00034394       0.00024994       0.00226626
Al       2.81681252       6.62383754      19.33281946        2      -0.00090254      -0.00311331      -0.00165506
Al       5.69594319       6.66377649      19.22936090        2      -0.00057133      -0.00149530       0.00488259
Al       8.55035626       6.66207898      19.23392205        2      -0.00097685       0.00050759       0.00222210
Al      11.41700140       6.63870698      19.35515578        2       0.00251515       0.00169705      -0.00493526
Al       4.25701695       9.12222350      19.36095843        2      -0.00217284      -0.00149549      -0.00441960
Al       7.11441981       9.12536812      19.35368406        2      -0.00063826      -0.00084264       0.00704040
Al       9.94764611       9.09619745      19.33305102        2       0.00260630       0.00170454       0.00449304
Al      12.82902454       9.09639765      19.34445266        2      -0.00268225      -0.00295285      -0.00449823
Al      -0.33479171      -0.11114819      21.97427611        1       0.00459805       0.00343454      -0.00528896
Al       2.72495608      -0.04955009      22.20445582        1       0.00134712       0.00299589      -0.01032953
Al       5.59177579       0.05576861      21.68218518        1       0.00008234       0.00196257      -0.00577367
Al       8.37007766       0.08369287      21.63281951        1       0.00564639      -0.00603363      -0.00437690
Al       1.21505486       2.59723884      21.90138224        1       0.00183290      -0.00188122       0.00069457
Al       4.15797351       2.47374041      21.58434214        1      -0.00007537       0.00217665      -0.00740258
Al       6.99019889       2.53139565      21.43162835        1      -0.00014118      -0.00332036       0.00260386
Al       9.78873338       2.56591463      21.91923191        1      -0.00288184      -0.00112865      -0.00448646
Al       2.77056727       4.95205012      21.64819643        1      -0.00265169      -0.00242857      -0.00293399
Al       5.64245321       4.96610346      21.42074015        1      -0.00201058       0.00027207       0.00657189
Al       8.45163950       5.00710888      21.42037798        1       0.00247289      -0.00061096       0.00263086
Al      11.27913373       4.98996174      21.59586571        1      -0.00252469      -0.00020928      -0.00149198
Al       4.13978426       7.37593940      21.69773588        1       0.00009117      -0.00161690       0.00086565
Al       7.04558633       7.43791344      21.64945100        1      -0.00252857       0.00108382      -0.00082667
Al       9.88440387       7.44142195      21.68720027        1      -0.00139504      -0.00032022      -0.00726860
Al      12.70794544       7.39468550      22.07699873        1       0.00043136       0.00107551      -0.00324834
C        6.08328867       3.95763154      24.54872279        0      -0.00265031      -0.00381300      -0.00363717
N        6.93577961       2.94052782      24.43275161        0       0.01110938       0.00641891       0.00641375
C        8.18702683       3.46052633      24.57444033        0      -0.01624020       0.00139934      -0.00800089
S        9.67339902       2.65624299      24.33088330        0      -0.00466699      -0.00541384       0.00645529
N        8.09357066       4.82269339      24.74105757        0       0.01616428       0.00596011      -0.00089630
N        6.72418875       5.14739844      24.84895823        0       0.00674590       0.02884237       0.00468570
H        5.01037726       3.90589089      24.38309429        0      -0.00372366       0.00208763       0.00342925
H        8.78520269       5.39032022      25.22586111        0      -0.01000544      -0.00509764      -0.01079371
H        6.45116334       5.97518491      24.29157389        0       0.00580928      -0.01733401       0.01350853
