105
Lattice="11.45512985522207 0.0 0.0 5.727564927611035 9.92043345827187 0.0 0.0 0.0 31.691342951089922" Properties=species:S:1:pos:R:3:tags:I:1:forces:R:3 energy=-424.191650390625 free_energy=-424.191650390625 stress="0.005922486074268818 1.4174729585647583e-06 -2.3562461137771606e-07 1.4174729585647583e-06 0.005976066924631596 1.244712620973587e-06 -2.3562461137771606e-07 1.244712620973587e-06 0.006066570524126291" pbc="T T F"
Al       1.41573980       0.89293728       9.99239494        6       0.00009946       0.00012107       0.00039296
Al       4.27998316       0.89182466      10.00023754        6       0.00029656       0.00002135       0.00054642
Al       7.14302269       0.89130374      10.00434678        6       0.00032596       0.00005512       0.00072509
Al      10.00719171       0.89211287       9.99833473        6       0.00025296       0.00006350       0.00095371
Al       2.84559537       3.37391681      10.00090165        6       0.00022396       0.00022549       0.00094573
Al       5.70834289       3.37299169      10.00004598        6       0.00030408       0.00020928       0.00095425
Al       8.57361966       3.37248433       9.99841250        6       0.00033613       0.00011340       0.00124510
Al      11.43885545       3.37409128       9.99958203        6       0.00015495       0.00022885       0.00096103
Al       4.27762146       5.85245089      10.00787330        6       0.00026645       0.00014738       0.00097508
Al       7.14217416       5.85126145      10.00204501        6       0.00029697       0.00005784       0.00094756
Al      10.00760889       5.85230411      10.00722978        6       0.00039162       0.00007460       0.00091106
Al      12.87106455       5.85329824      10.01510986        6       0.00025631       0.00007919       0.00107262
Al       5.71110617       8.33134623      10.00055834        6       0.00020309       0.00003533       0.00078251
Al       8.57603712       8.33090143      10.00177197        6       0.00029007      -0.00006130       0.00026464
Al      11.44067260       8.33056674      10.01284690        6       0.00033129       0.00002456       0.00079902
Al      14.30321018       8.33157876      10.01329722        6       0.00028199       0.00001576       0.00073030
Al       0.01945866       1.70084576      12.37625826        5      -0.00146038      -0.00110018       0.00269408
Al       2.88194163       1.70200293      12.37951828        5      -0.00367005      -0.00144812       0.00189199
Al       5.73965744       1.69851814      12.38549814        5       0.00165636      -0.00043220       0.00227632
Al       8.60298372       1.69747705      12.38736086        5       0.00329867      -0.00042132      -0.00048812
Al       1.45142279       4.18445401      12.39837188        5      -0.00260021      -0.00378487      -0.00420091
Al       4.31066882       4.18086373      12.39108617        5      -0.00080552      -0.00051228       0.00093425
Al       7.17477348       4.18069520      12.39206530        5       0.00220930      -0.00193067      -0.00596888
Al      10.04481539       4.18497850      12.39206913        5      -0.00095134      -0.00445993      -0.00399683
Al       2.87754464       6.65581083      12.40283901        5       0.00025460       0.00227373       0.00337020
Al       5.74171766       6.65583319      12.38681348        5       0.00072693       0.00251376       0.00569420
Al       8.61386386       6.66134411      12.38455472        5      -0.00186844      -0.00052902       0.00616067
Al      11.47512412       6.65819021      12.40557146        5      -0.00005277       0.00043447       0.00297530
Al       4.30732167       9.13355935      12.38664643        5       0.00132313       0.00194464       0.00638085
Al       7.17876574       9.13628671      12.37037809        5      -0.00286789       0.00186232       0.01000973
Al      10.04076560       9.13620032      12.38788018        5      -0.00191330       0.00065132       0.00507836
Al      12.89988507       9.13618093      12.39640043        5       0.00237811      -0.00006626       0.00625150
Al       0.01528529       0.03299353      14.66669988        4       0.00006026       0.00014504       0.00350408
Al       2.86904449       0.03496982      14.67551265        4       0.00051720       0.00016997       0.00247615
Al       5.73264798       0.02251310      14.67930647        4       0.00219417       0.00217375       0.00711603
Al       8.60265032       0.02792044      14.69826544        4       0.00039605       0.00031359       0.00247904
Al       1.44626605       2.51203515      14.67501105        4      -0.00039281      -0.00052026       0.00290357
Al       4.29750717       2.50569756      14.67287480        4       0.00106884      -0.00001494       0.00309297
Al       7.17058149       2.50249996      14.67760296        4       0.00037008       0.00001256       0.00210507
Al      10.04483440       2.50444996      14.66396626        4       0.00036848       0.00060325       0.00367937
Al       2.87313997       4.99534767      14.69891495        4       0.00047886       0.00007170       0.00222143
Al       5.74104111       4.99600684      14.67503676        4       0.00010054       0.00001025       0.00221010
Al       8.61479903       5.00001994      14.67298825        4       0.00027580       0.00013613       0.00241411
Al      11.47842918       4.99681187      14.70180299        4       0.00008884       0.00010930       0.00218996
Al       4.30529832       7.47454060      14.69938261        4       0.00076576       0.00049086       0.00204071
Al       7.17778522       7.48226948      14.67509857        4       0.00021949       0.00023067       0.00245832
Al      10.04796106       7.47820138      14.70247274        4      -0.00068229      -0.00015715       0.00158399
Al      12.90670303       7.47990099      14.72086622        4      -0.00019054      -0.00011511       0.00143433
Al       1.39457021       0.83290203      17.01729085        3       0.00165144       0.00176234       0.00141507
Al       4.25192504       0.81456141      17.00668045        3       0.00087756       0.00276682      -0.00946148
Al       7.14120999       0.82069072      17.01881238        3      -0.00013047      -0.00176529      -0.00562112
Al      10.02084892       0.84430486      17.00825792        3       0.00016311       0.00002959       0.00254839
Al       2.82571945       3.30674646      16.99894543        3       0.00020291      -0.00399665       0.00001053
Al       5.69967772       3.29953332      16.96575459        3      -0.00317514      -0.00310359      -0.00218377
Al       8.59092784       3.32057313      16.95664397        3      -0.00214241      -0.00509060       0.00046928
Al      11.44436557       3.31787435      17.00569988        3       0.00010281      -0.00420798      -0.00174462
Al       4.27095198       5.80205926      17.00063115        3       0.00076565      -0.00000332       0.00040997
Al       7.14732661       5.82003088      16.96969012        3      -0.00142356       0.00069704      -0.00456293
Al      10.02892704       5.80491379      17.00875739        3      -0.00321192       0.00376858      -0.00272622
Al      12.87667460       5.81391613      17.04082606        3      -0.00290362      -0.00646807      -0.00659960
Al       5.71695227       8.29974963      17.00645513        3      -0.00004431       0.00197039       0.00025657
Al       8.57715854       8.30599536      17.00320632        3      -0.00127413      -0.00268484       0.00127858
Al      11.44060738       8.27620978      17.04221091        3      -0.00311764       0.00377462      -0.00459762
Al      14.31304832       8.27888472      17.04468033        3      -0.00095145       0.00379180      -0.00214245
Al      -0.05791070       1.66734682      19.39282543        2      -0.00074948       0.00048750       0.00028357
Al       2.76069733       1.62602819      19.34158501        2      -0.00097661       0.00071884      -0.00138496
Al       5.62105565       1.61601250      19.24817704        2       0.00061543       0.00403331      -0.00501777
Al       8.57425676       1.68948991      19.26593332        2      -0.00051053      -0.00025165      -0.00399993
Al       1.36409014       4.12427348      19.29657399        2      -0.00125237      -0.00174662      -0.00706319
Al       4.22435007       4.12355070      19.23233141        2      -0.00046116      -0.00030874       0.00034999
Al       7.10582848       4.14875793      19.16929343        2       0.00143355      -0.00068624       0.00320862
Al       9.97387644       4.12526461      19.24045778        2      -0.00089723       0.00011694      -0.00088400
Al       2.80825243       6.63322043      19.33803618        2       0.00294439      -0.00446824       0.00098428
Al       5.68851744       6.67131807      19.23759142        2       0.00099405      -0.00260889      -0.00151596
Al       8.54600515       6.66481281      19.23923529        2       0.00004326       0.00044647      -0.00302054
Al      11.41468646       6.64246111      19.36366179        2      -0.00058491      -0.00081387      -0.00188356
Al       4.25656368       9.12942229      19.34847023        2      -0.00226904      -0.00228498      -0.00197466
Al       7.11670813       9.13199077      19.35245841        2      -0.00181522      -0.00204503       0.00031677
Al       9.94455851       9.09887629      19.35915479        2       0.00077347      -0.00084484      -0.00690439
Al      12.81963439       9.08235168      19.35123279        2       0.00147764       0.00523459      -0.00092801
Al      -0.36092356      -0.09752632      21.97367313        1       0.01444858       0.00331291      -0.00802894
Al       2.71439861      -0.02381601      22.20881171        1       0.00074612      -0.00206382      -0.00321874
Al       5.59091162       0.05147440      21.70225049        1      -0.00050994       0.00487305      -0.00518732
Al       8.37924401       0.09444748      21.62659608        1      -0.00232240      -0.00963311      -0.00632765
Al       1.20820897       2.59986083      21.87856308        1       0.00376672      -0.00052559       0.00406339
Al       4.14741354       2.47585180      21.54162649        1       0.00499479       0.00457548       0.01642518
Al       6.99688966       2.52904146      21.43303295        1      -0.00205551      -0.00040067       0.00735474
Al       9.79379287       2.56749998      21.91900426        1      -0.00377130      -0.00090621      -0.00393180
Al       2.75810705       4.96314956      21.65747536        1       0.00145766      -0.00060519      -0.00154492
Al       5.64166857       4.96687131      21.45078333        1      -0.00233093       0.00129966      -0.00816201
Al       8.43378812       4.99547815      21.44501216        1       0.00391925       0.00328924      -0.00494379
Al      11.27740503       4.98697176      21.60384093        1      -0.00648141       0.00295978      -0.00222094
Al       4.14209098       7.40793032      21.71111439        1      -0.00238210      -0.01033865      -0.00375824
Al       7.03809075       7.44132178      21.66103458        1      -0.00134561       0.00024386      -0.00097942
Al       9.85818668       7.41947433      21.69883775        1       0.00247269       0.00314536      -0.00467381
Al      12.71281058       7.41058775      22.07857426        1      -0.00273843      -0.00164943      -0.00222760
C        6.09392246       3.92944562      24.56802514        0       0.04693760       0.00932802       0.00137777
N        6.94980830       2.91771158      24.42605646        0      -0.00452827       0.00249851       0.00241053
C        8.19850499       3.42965170      24.58636436        0      -0.02498718       0.01364473      -0.00101864
S        9.68209704       2.62989055      24.33091197        0       0.00181712      -0.00736105       0.00618487
N        8.11267216       4.79385596      24.78795798        0      -0.01841760       0.01154935       0.00122790
N        6.73508695       5.11428736      24.89802535        0       0.00631480       0.00419881      -0.00237843
H        5.02349828       3.88529857      24.38884995        0      -0.01619204      -0.00099032      -0.00054416
H        8.77193038       5.30600973      25.37208558        0      -0.00518261      -0.00255721      -0.02358695
H        6.45660941       5.94709985      24.35229610        0       0.01660481      -0.01417345       0.01019465
