105
Lattice="11.45512985522207 0.0 0.0 5.727564927611035 9.92043345827187 0.0 0.0 0.0 31.691342951089922" Properties=species:S:1:pos:R:3:tags:I:1:forces:R:3 energy=-424.279052734375 free_energy=-424.279052734375 stress="0.006064365617930889 1.5469267964363098e-06 -2.253800630569458e-07 1.5469267964363098e-06 0.006114045158028603 1.2652017176151276e-06 -2.253800630569458e-07 1.2652017176151276e-06 0.006209134124219418" pbc="T T F"
Al       1.41340345       0.89016678       9.98954984        6       0.00078015       0.00021796      -0.00023818
Al       4.27760613       0.88878352       9.99520315        6       0.00076252       0.00021140       0.00074042
Al       7.14134460       0.88835477       9.99966717        6       0.00049182       0.00013859       0.00052462
Al      10.00551072       0.88958297       9.99551352        6       0.00045396       0.00003093      -0.00014677
Al       2.84339090       3.37041088       9.99551430        6       0.00073349       0.00048139       0.00095837
Al       5.70672894       3.36976813       9.99486504        6       0.00058361       0.00030065       0.00097003
Al       8.57191179       3.36932911       9.99430551        6       0.00052421       0.00032119       0.00067183
Al      11.43675820       3.37071307       9.99576132        6       0.00065520       0.00045873       0.00040790
Al       4.27570124       5.84959290      10.00210732        6       0.00059587       0.00029328       0.00107978
Al       7.14047538       5.84850394       9.99734154        6       0.00058156       0.00023060       0.00095190
Al      10.00547899       5.84913181      10.00277334        6       0.00073345       0.00037701       0.00074331
Al      12.86895989       5.85009542      10.00923155        6       0.00066842       0.00040969       0.00109763
Al       5.70932855       8.32863218       9.99523406        6       0.00055421       0.00018316       0.00081447
Al       8.57370045       8.32767555       9.99657352        6       0.00079028       0.00033513       0.00074398
Al      11.43844485       8.32719617      10.00617968        6       0.00072857       0.00039933       0.00123942
Al      14.30139998       8.32872390      10.00692277        6       0.00047617       0.00019628       0.00101013
Al       0.01839761       1.69606382      12.36983680        5      -0.00024666       0.00162111       0.00237776
Al       2.87817583       1.69499438      12.37415972        5       0.00110100       0.00263464       0.00418569
Al       5.73698410       1.69263686      12.38264742        5       0.00101801       0.00205994       0.00240382
Al       8.60261965       1.69298153      12.37778386        5      -0.00002381       0.00099013       0.00164170
Al       1.44920257       4.18136617      12.39332367        5      -0.00018752       0.00101249      -0.00069701
Al       4.30740686       4.18148389      12.38601361        5       0.00084204      -0.00083012       0.00106573
Al       7.17368789       4.17792688      12.38500496        5      -0.00035663       0.00041305      -0.00280541
Al      10.04219024       4.18160267      12.38397552        5       0.00048646       0.00056986      -0.00115703
Al       2.87581392       6.66255184      12.40504040        5       0.00030550      -0.00257793      -0.00484821
Al       5.74138282       6.66335030      12.38952425        5      -0.00073259      -0.00352338      -0.00541827
Al       8.61098045       6.66666933      12.38981300        5       0.00020783      -0.00333921      -0.00628567
Al      11.47364149       6.66572109      12.40519607        5       0.00053252      -0.00404766      -0.00397580
Al       4.30580570       9.13763807      12.39286027        5      -0.00027543      -0.00208793      -0.00750093
Al       7.17835337       9.14169369      12.37682551        5      -0.00086194      -0.00245577       0.00065987
Al      10.04121999       9.14249817      12.39659826        5      -0.00037958      -0.00310698      -0.00155479
Al      12.89831006       9.13958336      12.40658440        5       0.00142606      -0.00250176      -0.00473073
Al       0.01106441       0.02991400      14.65618090        4       0.00294905       0.00164648       0.00929673
Al       2.87986470       0.03903413      14.68810792        4      -0.00326003      -0.00138403      -0.00281989
Al       5.74438722       0.03196234      14.71084123        4      -0.00279857      -0.00197609      -0.00587893
Al       8.60304592       0.02893491      14.70436420        4       0.00098484       0.00034511       0.00065680
Al       1.44974003       2.51105159      14.66925139        4      -0.00222040      -0.00115652       0.00271603
Al       4.30278519       2.50746075      14.67851273        4      -0.00030431      -0.00034466      -0.00119671
Al       7.16793848       2.49915935      14.67085381        4       0.00127987       0.00079036       0.00153853
Al      10.04288957       2.49724479      14.65311046        4       0.00145073       0.00300975       0.00587548
Al       2.88105455       4.99335109      14.70107323        4      -0.00105512       0.00010196      -0.00034867
Al       5.73721594       4.99208339      14.67821234        4       0.00111024       0.00064361      -0.00019579
Al       8.61286565       4.99657411      14.66558946        4       0.00075812       0.00041916       0.00219050
Al      11.47771621       4.99439514      14.69769140        4       0.00041946       0.00022981       0.00139757
Al       4.30547565       7.47400209      14.69545788        4       0.00095238       0.00040787       0.00191006
Al       7.17559006       7.48163036      14.66860149        4       0.00051281       0.00021103       0.00213369
Al      10.05005040       7.47950408      14.69893050        4      -0.00111643      -0.00081275       0.00058398
Al      12.90734091       7.48089626      14.71419467        4      -0.00038502      -0.00107350       0.00082116
Al       1.40854444       0.83494126      17.01175141        3      -0.00938917      -0.00028068      -0.00757572
Al       4.26490210       0.82507230      17.00185137        3      -0.00309185      -0.00425467      -0.00129798
Al       7.14060284       0.81400704      17.01446124        3       0.00238139       0.00315658       0.00092781
Al      10.01751297       0.83734821      16.99918830        3       0.00209136       0.00162107       0.00193145
Al       2.82859320       3.30433436      16.98729999        3       0.00041677       0.00025754       0.00245037
Al       5.69563619       3.30914549      16.95462523        3       0.00180166      -0.00584794       0.00123310
Al       8.59129176       3.32468708      16.94364466        3      -0.00139010      -0.00754313       0.00253142
Al      11.44507417       3.31517386      16.99308176        3       0.00118581      -0.00223725       0.00116463
Al       4.28128244       5.80425956      17.00403688        3      -0.00469350      -0.00011433      -0.00602858
Al       7.15025711       5.81809153      16.96240794        3      -0.00100709       0.00094281      -0.00440975
Al      10.02696921       5.80208457      17.00091623        3       0.00073867       0.00387047      -0.00238158
Al      12.87989914       5.81834997      17.02511718        3      -0.00087610      -0.00530465       0.00289224
Al       5.71497358       8.29434703      16.99365187        3       0.00178507       0.00325820       0.00203808
Al       8.57201722       8.29737416      16.97853143        3       0.00329543       0.00248957       0.00583587
Al      11.44244173       8.27648413      17.03393202        3       0.00017544       0.00101287       0.00287938
Al      14.31159843       8.27982217      17.03597491        3      -0.00003958       0.00029343       0.00220585
Al      -0.05457462       1.66444049      19.38289897        2      -0.00033609       0.00127093       0.00622815
Al       2.77107876       1.62143714      19.31000512        2      -0.00042102       0.00283371       0.01802090
Al       5.62808264       1.62024136      19.23986091        2       0.00300413       0.00441472       0.00501477
Al       8.57796796       1.69137245      19.24961111        2      -0.00424964      -0.00128837       0.01033220
Al       1.36785429       4.13014716      19.30071353        2       0.00005370      -0.00137736      -0.00427067
Al       4.22541901       4.12016243      19.22398928        2       0.00133782       0.00024438       0.00632879
Al       7.10355275       4.14591944      19.16120785        2       0.00373191      -0.00059807       0.01245715
Al       9.98398509       4.12329391      19.24041672        2      -0.00501626       0.00137080       0.00417267
Al       2.81533106       6.61945890      19.35102302        2      -0.00020678       0.00291365      -0.00285900
Al       5.68473763       6.66813966      19.24489807        2       0.00212512      -0.00063757       0.00021137
Al       8.55006602       6.68317328      19.21891634        2      -0.00165349      -0.01245273       0.01631409
Al      11.41315422       6.64756179      19.35648246        2       0.00257826      -0.00599517       0.00367307
Al       4.25958635       9.13393227      19.31016222        2      -0.00206710      -0.00504193       0.02008211
Al       7.12318766       9.12834825      19.34246310        2      -0.00261091      -0.00100772       0.01173965
Al       9.95424716       9.08385554      19.37326766        2       0.00099461       0.01167862      -0.00560478
Al      12.82446827       9.07943889      19.38607715        2      -0.00148710      -0.00016218      -0.01547272
Al      -0.36739805      -0.07314998      21.97992145        1       0.01063971       0.00167000      -0.00322334
Al       2.71308844      -0.00979967      22.20196940        1       0.00319291      -0.00468814      -0.00721728
Al       5.60182627       0.06114843      21.72160264        1      -0.00321076      -0.00175448      -0.00789385
Al       8.38593459       0.09688092      21.60708652        1       0.00496695      -0.00738867       0.00916519
Al       1.21270026       2.59489328      21.87421527        1       0.00237237      -0.00009469       0.00338350
Al       4.15311474       2.48653080      21.52519740        1       0.00112257      -0.00145617       0.01558969
Al       7.00264439       2.51987857      21.45475183        1      -0.00375785       0.00376929      -0.00115876
Al       9.79313943       2.58847909      21.88680480        1      -0.00278806      -0.00756187       0.03482136
Al       2.75528498       4.96164423      21.65488083        1       0.00359105       0.00209784      -0.00172515
Al       5.63655121       4.97020414      21.44964451        1       0.00040839       0.00007248      -0.00222980
Al       8.44160637       4.99268305      21.43616016        1       0.00123396       0.00538283       0.00035363
Al      11.27649919       4.99480261      21.59310739        1      -0.00006939      -0.00059699       0.00552399
Al       4.14775625       7.41715008      21.70585112        1      -0.00228029      -0.00873997      -0.00535134
Al       7.03749496       7.43847384      21.65632885        1      -0.00152746       0.00407460      -0.00389862
Al       9.84947076       7.38899249      21.70028467        1       0.01126040       0.02913316      -0.00861083
Al      12.73319594       7.41828774      22.08503351        1      -0.00562066      -0.00118481      -0.00893170
C        6.08540400       3.90898276      24.58603305        0       0.01492240       0.02058212      -0.00865624
N        6.95570184       2.91783825      24.41002233        0       0.03074703       0.01213889       0.02483259
C        8.19972476       3.44388484      24.61223847        0      -0.05177189       0.03777754      -0.03614964
S        9.70283470       2.68054470      24.37162542        0      -0.02971759      -0.00053054      -0.02107152
N        8.08040898       4.79125691      24.86309434        0       0.02508106       0.06559580       0.00078380
N        6.70061772       5.09275962      24.96905557        0       0.06454023      -0.04077642      -0.00217954
H        5.01054667       3.83725963      24.44621902        0      -0.00476561       0.00774328      -0.01710079
H        8.76452449       5.33880643      25.38472308        0      -0.09869162      -0.05902588      -0.04945354
H        6.41904732       5.94328607      24.45525152        0       0.02871247      -0.03419458      -0.00397859
