105
Lattice="11.45512985522207 0.0 0.0 5.727564927611035 9.92043345827187 0.0 0.0 0.0 31.691342951089922" Properties=species:S:1:pos:R:3:tags:I:1:forces:R:3 energy=-424.2044982910156 free_energy=-424.2044982910156 stress="0.005920033901929855 1.4230608940124512e-06 -2.2444874048233032e-07 1.4230608940124512e-06 0.005974255036562681 1.1567026376724243e-06 -2.2444874048233032e-07 1.1567026376724243e-06 0.006056696176528931" pbc="T T F"
Al       1.41669957       0.89195038       9.99539454        6      -0.00006505      -0.00011962       0.00031795
Al       4.28109686       0.89094565      10.00311429        6       0.00016365      -0.00023488       0.00058758
Al       7.14396022       0.89046850      10.00716235        6       0.00015146      -0.00020898       0.00076377
Al      10.00814785       0.89110571      10.00104217        6       0.00005838      -0.00015957       0.00097828
Al       2.84672593       3.37283637      10.00418055        6       0.00009650       0.00000376       0.00088227
Al       5.70943243       3.37205749      10.00364164        6       0.00016317      -0.00003853       0.00089487
Al       8.57458156       3.37150173      10.00173643        6       0.00017390      -0.00012733       0.00125121
Al      11.43976223       3.37308824      10.00284808        6       0.00002085      -0.00000928       0.00090959
Al       4.27873210       5.85106177      10.01061564        6       0.00013335      -0.00005236       0.00096668
Al       7.14313548       5.84993623      10.00481904        6       0.00015784      -0.00013468       0.00103245
Al      10.00851045       5.85109200      10.00991323        6       0.00027697      -0.00011358       0.00093627
Al      12.87200122       5.85199023      10.01753185        6       0.00010593      -0.00007256       0.00111434
Al       5.71208329       8.33000759      10.00271015        6       0.00004470      -0.00015312       0.00088473
Al       8.57699184       8.32963399      10.00389236        6       0.00019078      -0.00025586       0.00049026
Al      11.44156165       8.32942238      10.01484660        6       0.00019492      -0.00016952       0.00105252
Al      14.30411660       8.33029807      10.01528753        6       0.00010041      -0.00017720       0.00080338
Al       0.01919918       1.69982982      12.38144921        5      -0.00188355      -0.00179100      -0.00255380
Al       2.88060639       1.70114289      12.38363463        5      -0.00288449      -0.00229605      -0.00123098
Al       5.74024170       1.69754881      12.38904973        5       0.00092412      -0.00102091       0.00068953
Al       8.60377952       1.69648749      12.39177386        5       0.00246969      -0.00118104      -0.00383322
Al       1.45068542       4.18276186      12.40041698        5      -0.00224602      -0.00310444      -0.00377115
Al       4.31004883       4.18053034      12.39494658        5      -0.00070057      -0.00113763      -0.00085635
Al       7.17541430       4.17948502      12.39587226        5       0.00133877      -0.00211308      -0.00792666
Al      10.04488263       4.18300536      12.39403269        5      -0.00133295      -0.00361200      -0.00398351
Al       2.87695139       6.65586023      12.40749280        5       0.00008864       0.00213019       0.00077921
Al       5.74145940       6.65591460      12.39306352        5       0.00040945       0.00222339       0.00151168
Al       8.61359077       6.66088348      12.39086267        5      -0.00213516      -0.00075980       0.00166892
Al      11.47568231       6.65772522      12.41074055        5      -0.00089483       0.00040686      -0.00050837
Al       4.30763687       9.13373928      12.39374139        5       0.00064631       0.00145300       0.00165334
Al       7.17754976       9.13627415      12.37642614        5      -0.00268020       0.00126474       0.00517722
Al      10.04023245       9.13561195      12.39264228        5      -0.00189804       0.00034150       0.00188338
Al      12.90073516       9.13552618      12.40146566        5       0.00167736      -0.00034116       0.00327005
Al       0.01440369       0.03183405      14.66684101        4      -0.00015784      -0.00006413       0.00516422
Al       2.86839966       0.03452553      14.67837511        4       0.00031964      -0.00010047       0.00241662
Al       5.73177749       0.02229760      14.68352793        4       0.00198644       0.00167171       0.00609586
Al       8.60076663       0.02719153      14.70172046        4       0.00041791       0.00015651       0.00244422
Al       1.44569022       2.51105282      14.67631191        4      -0.00083826      -0.00106571       0.00349077
Al       4.29643500       2.50463815      14.67565036        4       0.00083677      -0.00008806       0.00281601
Al       7.16933056       2.50139605      14.68107266        4       0.00029385      -0.00013371       0.00204190
Al      10.04484544       2.50294648      14.66522221        4       0.00018757       0.00083742       0.00496569
Al       2.87232254       4.99468491      14.70253116        4       0.00035370      -0.00021319       0.00205035
Al       5.74049068       4.99522549      14.67849921        4      -0.00005573      -0.00028646       0.00216993
Al       8.61449214       4.99986999      14.67568338        4       0.00015269      -0.00022568       0.00245318
Al      11.47825542       4.99642224      14.70549681        4      -0.00026777      -0.00031068       0.00183026
Al       4.30385803       7.47308200      14.70242369        4       0.00081784       0.00040440       0.00209719
Al       7.17736724       7.48163131      14.67657667        4       0.00006113       0.00002676       0.00262853
Al      10.04781805       7.47754034      14.70514451        4      -0.00104486      -0.00041484       0.00146444
Al      12.90610092       7.47989003      14.72452428        4      -0.00041470      -0.00045769       0.00118947
Al       1.39357894       0.82832541      17.01918017        3       0.00365006       0.00560087       0.00007302
Al       4.25056062       0.81348998      17.00219671        3       0.00153948       0.00277100      -0.00320070
Al       7.14103342       0.81871896      17.01734791        3      -0.00001571      -0.00066246      -0.00180939
Al      10.02203726       0.84421313      17.01008858        3      -0.00009967      -0.00030390       0.00256032
Al       2.82542264       3.30552957      16.99897933        3       0.00003650      -0.00490312       0.00037170
Al       5.69795973       3.29622600      16.96701200        3      -0.00259945      -0.00237610      -0.00161034
Al       8.59125510       3.31848204      16.95912960        3      -0.00239337      -0.00509563      -0.00038148
Al      11.44559349       3.31677367      17.00811597        3      -0.00060349      -0.00551103      -0.00317966
Al       4.27087672       5.80030747      17.00246621        3       0.00068872       0.00016054      -0.00013402
Al       7.14691201       5.82016380      16.96996096        3      -0.00140566       0.00009626      -0.00409134
Al      10.02733409       5.80492803      17.00992656        3      -0.00246164       0.00292989      -0.00221139
Al      12.87594475       5.81195943      17.04114601        3      -0.00233166      -0.00435178      -0.00433574
Al       5.71772260       8.30073976      17.00688358        3      -0.00096843       0.00101484       0.00019948
Al       8.57724196       8.30592999      17.00604337        3      -0.00209909      -0.00436896       0.00015573
Al      11.44006054       8.27573394      17.04203078        3      -0.00144997       0.00146251      -0.00046367
Al      14.31298830       8.28037499      17.04729181        3      -0.00045022       0.00164183      -0.00034834
Al      -0.05644513       1.66646360      19.39564980        2      -0.00111268       0.00035625       0.00138470
Al       2.76124245       1.62583783      19.34426734        2      -0.00115591       0.00011936      -0.00199838
Al       5.62176816       1.61630138      19.24869748        2       0.00007958       0.00292416      -0.00582079
Al       8.57530086       1.68966454      19.26642944        2      -0.00080849      -0.00108326      -0.00309285
Al       1.36597090       4.12214912      19.29480999        2      -0.00109133      -0.00196339      -0.00587157
Al       4.22479247       4.12186423      19.23169871        2      -0.00081258      -0.00081719       0.00105943
Al       7.10705453       4.14831883      19.17089725        2       0.00085540      -0.00138179       0.00152889
Al       9.97552654       4.12509128      19.24051088        2      -0.00068212      -0.00007591       0.00159556
Al       2.81000421       6.62960550      19.33726666        2       0.00244021      -0.00403644       0.00064908
Al       5.68990881       6.67015002      19.23522619        2       0.00047288      -0.00284478       0.00092505
Al       8.54759916       6.66322516      19.23901139        2      -0.00032523       0.00056814      -0.00126554
Al      11.41454326       6.63853143      19.36615019        2       0.00006534       0.00042963      -0.00355654
Al       4.25922939       9.12965896      19.35265962        2      -0.00298723      -0.00292684      -0.00201770
Al       7.11682819       9.13081500      19.35315536        2      -0.00189201      -0.00244079       0.00211196
Al       9.94372982       9.09749172      19.35754088        2       0.00106498      -0.00036456      -0.00704750
Al      12.82040309       9.08256211      19.35014663        2       0.00082026       0.00359880      -0.00240263
Al      -0.36011808      -0.10339663      21.97447078        1       0.01663155       0.00648551      -0.00861392
Al       2.71821945      -0.03019684      22.20880232        1       0.00007578      -0.00115418      -0.00425838
Al       5.59344469       0.04661036      21.69643346        1      -0.00086058       0.00443969      -0.00562698
Al       8.37802519       0.09293305      21.62536689        1      -0.00070686      -0.00878335      -0.00403525
Al       1.21235308       2.59704462      21.87490388        1       0.00395373      -0.00209519       0.00409147
Al       4.14987448       2.47278399      21.54505691        1       0.00420296       0.00581347       0.01908978
Al       6.99740233       2.53182085      21.43056625        1      -0.00086259      -0.00245588       0.01104653
Al       9.79981657       2.56680468      21.91519217        1      -0.00521866      -0.00072600      -0.00119880
Al       2.76179699       4.96078008      21.65903868        1       0.00027936      -0.00099252      -0.00245937
Al       5.64575908       4.96511882      21.44307937        1      -0.00458284       0.00089951      -0.00462523
Al       8.43793276       4.99248924      21.43636563        1       0.00426315       0.00332058      -0.00272186
Al      11.27909132       4.98850482      21.60817896        1      -0.00532647       0.00226412      -0.00203462
Al       4.14267686       7.40137452      21.70887863        1      -0.00213050      -0.00933793      -0.00177596
Al       7.04298530       7.43969745      21.65713153        1      -0.00239274      -0.00000086      -0.00042534
Al       9.86576207       7.42462094      21.70303773        1       0.00041277       0.00150812      -0.00543558
Al      12.71277558       7.40886300      22.06805524        1      -0.00220712      -0.00225651       0.00147020
C        6.08835565       3.93449986      24.55225342        0       0.02764231       0.04090181       0.00935259
N        6.94970010       2.92675984      24.43408199        0       0.00594496       0.00030028       0.00191718
C        8.19747421       3.44640633      24.58870583        0      -0.02901775       0.00615832      -0.01967650
S        9.67889020       2.63680042      24.33118422        0      -0.01277182       0.00589884       0.01230222
N        8.09992298       4.81356902      24.76154217        0      -0.00254016      -0.01723851      -0.00274901
N        6.72167397       5.13026827      24.87893371        0       0.00149442      -0.02819161      -0.00894670
H        5.01634147       3.87308087      24.38345045        0      -0.00069606       0.00982905       0.00561216
H        8.75981656       5.34856190      25.32073878        0       0.02603756       0.01619497      -0.00018092
H        6.45226556       5.95140826      24.31315291        0      -0.00110765       0.00286759       0.00095253
