105
Lattice="11.45512985522207 0.0 0.0 5.727564927611035 9.92043345827187 0.0 0.0 0.0 31.691342951089922" Properties=species:S:1:pos:R:3:tags:I:1:forces:R:3 energy=-424.6085205078125 free_energy=-424.6085205078125 stress="0.005084285046905279 1.4030374586582184e-06 -3.557652235031128e-07 1.4030374586582184e-06 0.005137802101671696 1.6675330698490143e-06 -3.557652235031128e-07 1.6675330698490143e-06 0.0052765728905797005" pbc="T T F"
Al       1.42311176       0.83775003      10.01313412        6      -0.00026469       0.00024256      -0.00021748
Al       4.28709635       0.83763605      10.01394339        6      -0.00012547       0.00018849       0.00049218
Al       7.15080229       0.83756914      10.01390178        6      -0.00019303       0.00014399       0.00064694
Al      10.01441580       0.83775273      10.01376435        6      -0.00034437       0.00020529       0.00015722
Al       2.85493349       3.31826894      10.01345547        6      -0.00027114       0.00042095       0.00036240
Al       5.71890684       3.31803744      10.01339787        6      -0.00019389       0.00032026       0.00053932
Al       8.58271948       3.31810436      10.01378523        6      -0.00019728       0.00029283       0.00079824
Al      11.44636546       3.31832860      10.01364758        6      -0.00025806       0.00043131       0.00049073
Al       4.28680801       5.79854248      10.01387074        6      -0.00028672       0.00042706       0.00092753
Al       7.15089292       5.79838074      10.01423972        6      -0.00017615       0.00032860       0.00100180
Al      10.01479202       5.79845434      10.01457453        6      -0.00011902       0.00040694       0.00135934
Al      12.87825278       5.79861293      10.01480251        6      -0.00024498       0.00040433       0.00127486
Al       5.71876129       8.27834055      10.01409051        6      -0.00032655       0.00019274       0.00039002
Al       8.58292397       8.27825194      10.01440380        6      -0.00012905       0.00020712       0.00073520
Al      11.44666528       8.27823553      10.01506972        6      -0.00017421       0.00023283       0.00112954
Al      14.31010615       8.27836692      10.01464455        6      -0.00032939       0.00024263       0.00071113
Al       0.00674952       1.65732440      12.39222475        5      -0.00073546       0.00006719      -0.00422901
Al       2.86924728       1.65658520      12.39063079        5       0.00028225       0.00051418      -0.00551533
Al       5.73693870       1.65489554      12.39193074        5      -0.00017026       0.00056677      -0.00444722
Al       8.59994123       1.65589742      12.39547619        5      -0.00002113       0.00019970      -0.00523977
Al       1.43785606       4.14083828      12.39833674        5      -0.00010416       0.00045970      -0.00793723
Al       4.30187045       4.14131345      12.39168569        5      -0.00040153      -0.00046350      -0.00492563
Al       7.16871571       4.13957286      12.39639234        5      -0.00031690      -0.00001148      -0.00805051
Al      10.03264310       4.14096372      12.39818791        5      -0.00019847      -0.00014123      -0.00573277
Al       2.86937376       6.62236472      12.40382408        5       0.00029234      -0.00129466      -0.01061851
Al       5.73418984       6.62158431      12.39853463        5      -0.00012066      -0.00104212      -0.00944281
Al       8.60189616       6.62106732      12.40271591        5      -0.00049689      -0.00117236      -0.00967514
Al      11.46392873       6.62112936      12.40896640        5      -0.00032137      -0.00133048      -0.01150717
Al       4.30216638       9.09758496      12.39952415        5      -0.00061186      -0.00065195      -0.01097202
Al       7.16665991       9.09777782      12.39523781        5      -0.00066313      -0.00097862      -0.00830254
Al      10.03226142       9.09611464      12.40246452        5      -0.00018424      -0.00095529      -0.01216769
Al      12.89534195       9.09573602      12.40314878        5      -0.00020254      -0.00061759      -0.01089768
Al       0.00333868       0.00458498      14.68203510        4      -0.00008280       0.00030393       0.00164319
Al       2.86324453       0.00243692      14.67898342        4       0.00005202       0.00034370       0.00188537
Al       5.73274082      -0.00093792      14.68367503        4       0.00001927       0.00039613       0.00209380
Al       8.59511414       0.00039610      14.68818613        4       0.00026358       0.00035670       0.00168489
Al       1.42909673       2.48172208      14.67927465        4       0.00007811       0.00033662       0.00154451
Al       4.29693908       2.48115714      14.66744563        4       0.00007278       0.00028992       0.00158427
Al       7.16644750       2.48106349      14.67887499        4       0.00032913       0.00011083       0.00138578
Al      10.02898577       2.48431802      14.68011329        4      -0.00001725       0.00038104       0.00175938
Al       2.86276734       4.97048828      14.68005967        4       0.00003749      -0.00014511       0.00162413
Al       5.72922096       4.96863027      14.67582205        4       0.00007632       0.00006469       0.00113711
Al       8.59804529       4.96812253      14.68379643        4       0.00034507      -0.00010699       0.00140542
Al      11.45792814       4.96879766      14.69232171        4       0.00017496      -0.00005921       0.00178034
Al       4.29463359       7.44984025      14.69451606        4       0.00029503       0.00010490       0.00083088
Al       7.16246993       7.44842493      14.68324848        4       0.00005545       0.00011303       0.00175075
Al      10.02752087       7.44682107      14.70307213        4       0.00022706      -0.00004464       0.00164347
Al      12.88832328       7.44898549      14.70506198        4       0.00020190      -0.00001632       0.00137292
Al       1.41956374       0.81608293      16.99218219        3       0.00048568       0.01104448      -0.00735213
Al       4.28964886       0.81344803      16.96553445        3      -0.00043753       0.00053863       0.00229805
Al       7.16751970       0.80555058      16.98506985        3       0.00052663       0.00237852       0.00077524
Al      10.02399807       0.82463176      16.98342233        3       0.00004449       0.00054463       0.00270720
Al       2.85179644       3.30393742      16.95747457        3      -0.00006171       0.00037001       0.00293651
Al       5.72714993       3.30424398      16.95264937        3       0.00171520       0.00075093       0.00144244
Al       8.60447634       3.30679998      16.98096377        3      -0.00037865       0.00039389       0.00274502
Al      11.44469501       3.30734068      16.99304037        3      -0.00004528       0.00035197       0.00269704
Al       4.28703691       5.79302325      16.98099002        3       0.00012044       0.00119882      -0.00167067
Al       7.16017227       5.78688907      16.97378880        3       0.00103914      -0.00084413      -0.00354881
Al      10.02645186       5.77447808      17.00488329        3       0.00058886       0.00010479       0.00225532
Al      12.88290243       5.79285932      17.00333353        3      -0.00003361      -0.00058484       0.00257834
Al       5.72776242       8.27492054      16.98881057        3      -0.00151412      -0.00052052       0.00167250
Al       8.58462210       8.26825925      16.99194409        3       0.00403507      -0.00014589      -0.00129101
Al      11.45700495       8.26757721      17.02161254        3      -0.00148490      -0.00123042      -0.00305347
Al      14.31031175       8.26724477      17.02407389        3       0.00640736      -0.00022244      -0.00841752
Al      -0.02412508       1.66905071      19.29164473        2       0.00381803      -0.00255214       0.00691974
Al       2.84656121       1.66423891      19.23846729        2      -0.00140832      -0.00346457       0.01601157
Al       5.72821903       1.65884793      19.19267960        2      -0.00707307      -0.00481521       0.01184457
Al       8.60425012       1.66811553      19.25107067        2       0.00012085      -0.00140624      -0.00104445
Al       1.41913653       4.10533779      19.26042871        2       0.00102587       0.00092097       0.00400635
Al       4.29365267       4.13336157      19.20317632        2      -0.00052313      -0.00066850       0.01845638
Al       7.16782353       4.15308910      19.25374402        2       0.00066406      -0.00537281      -0.01001274
Al      10.01952454       4.10889674      19.36205192        2      -0.00337890      -0.00178317      -0.01301803
Al       2.87223488       6.62543985      19.30414211        2      -0.00033367      -0.00036699       0.01211466
Al       5.74215656       6.62070043      19.23594248        2      -0.00123258       0.00176465       0.01376348
Al       8.59221658       6.60823930      19.23789581        2      -0.00103865       0.00294402       0.00302967
Al      11.45703770       6.62747545      19.29741112        2       0.00118563       0.00261802      -0.00452997
Al       4.31035356       9.12847672      19.28402611        2      -0.00260334      -0.00613678       0.01537555
Al       7.16086384       9.11252914      19.27498266        2       0.00027602      -0.00254446       0.01790436
Al      10.00514682       9.11589998      19.28354590        2       0.00198452      -0.00254461       0.00395793
Al      12.88651806       9.10111855      19.33418249        2       0.00175437       0.00106090       0.01177926
Al      -0.04571965      -0.02706530      21.75975973        1      -0.00593965      -0.00185155       0.00789010
Al       2.85442077      -0.03994522      21.78304283        1      -0.00236764      -0.00183452       0.00885881
Al       5.70745395       0.03963564      21.70574787        1      -0.00356117       0.00170786       0.00300068
Al       8.53400686       0.07092326      21.73041594        1      -0.00376188       0.00425217       0.00278900
Al       1.38771491       2.53714297      21.77638319        1      -0.00797052       0.00180479       0.00894484
Al       4.29279102       2.49933159      21.52622465        1      -0.00835178      -0.00432186      -0.00083040
Al       7.08564088       2.50000851      21.48787073        1      -0.00216283      -0.00668525      -0.00214818
Al       9.88980525       2.57780750      21.85515550        1      -0.00159174      -0.00361114      -0.00548395
Al       2.90836086       4.97250120      21.60681002        1      -0.00215288      -0.00789838      -0.00714575
Al       5.75937237       4.94572526      21.56292770        1      -0.01073172       0.00378889      -0.01957409
Al       8.55994971       4.99853354      21.58854640        1      -0.00017336       0.00635348      -0.01616836
Al      11.47428348       5.01874157      21.56370391        1       0.00078283      -0.00748280      -0.00231865
Al       4.30153978       7.42440709      21.68945385        1      -0.00136968      -0.00056371      -0.00572629
Al       7.14099456       7.39843875      21.68478249        1      -0.00146884       0.00079546      -0.00460014
Al       9.99607439       7.42897069      21.62508569        1       0.00034936      -0.00205144       0.00122613
Al      12.89315784       7.40829576      21.82480361        1      -0.00190771      -0.00310117       0.01472454
C        5.84908014       3.84439653      24.92043579        0       0.04024699       0.02177713      -0.01650928
N        6.91821784       3.12197575      24.61351198        0       0.01945909      -0.02749588      -0.00786137
C        7.98751688       3.95856903      24.63770895        0       0.02455648      -0.02119297       0.01549068
S        9.56832882       3.58047349      24.11204658        0       0.02519237      -0.01384581       0.00587675
N        7.60178232       5.18815440      25.13316235        0      -0.06807017      -0.02311096       0.01190065
N        6.17353515       5.16391465      25.23358274        0       0.03839678      -0.03084385       0.03425588
H        4.82944655       3.47478834      24.89461223        0      -0.05142970       0.04648088       0.00203095
H        8.01619467       6.06048007      24.80601066        0       0.02526750       0.02626557      -0.02796791
H        5.73000350       5.87031271      24.62910725        0      -0.00000298       0.05061839      -0.01024781
