105
Lattice="11.45512985522207 0.0 0.0 5.727564927611035 9.92043345827187 0.0 0.0 0.0 31.691342951089922" Properties=species:S:1:pos:R:3:tags:I:1:forces:R:3 energy=-424.0847473144531 free_energy=-424.0847473144531 stress="0.006163673009723425 1.0691583156585693e-06 -3.119930624961853e-07 1.0691583156585693e-06 0.006214058957993984 1.991633325815201e-06 -3.119930624961853e-07 1.991633325815201e-06 0.006390355993062258" pbc="T T F"
Al       1.42930894       0.82984662       9.99617182        6      -0.00045901       0.00040157       0.00181263
Al       4.29309256       0.82986108       9.99615661        6      -0.00044627       0.00037835       0.00186545
Al       7.15686498       0.82986012       9.99617666        6      -0.00044731       0.00038674       0.00186096
Al      10.02065382       0.82985954       9.99621480        6      -0.00045421       0.00040783       0.00183583
Al       2.86118370       3.30997043       9.99613653        6      -0.00047269       0.00041245       0.00182569
Al       5.72498342       3.30995527       9.99611614        6      -0.00045778       0.00038633       0.00182554
Al       8.58874713       3.30995603       9.99611541        6      -0.00045529       0.00039430       0.00182318
Al      11.45252125       3.30996302       9.99617160        6      -0.00045898       0.00042028       0.00180829
Al       4.29307501       5.79009144       9.99617253        6      -0.00047172       0.00042590       0.00180130
Al       7.15686984       5.79007906       9.99616967        6      -0.00045853       0.00040533       0.00180510
Al      10.02064358       5.79007848       9.99616070        6      -0.00044679       0.00041569       0.00181513
Al      12.88439276       5.79009134       9.99622302        6      -0.00045957       0.00043727       0.00182172
Al       5.72495730       8.27020011       9.99618091        6      -0.00046404       0.00041797       0.00183205
Al       8.58876441       8.27019104       9.99615162        6      -0.00043718       0.00040090       0.00183672
Al      11.45254023       8.27018774       9.99616896        6      -0.00043788       0.00040936       0.00187615
Al      14.31629127       8.27020542       9.99622310        6      -0.00044880       0.00042553       0.00184939
Al       0.00454319       1.65704354      12.39539293        5       0.00085890      -0.00050628      -0.00458946
Al       2.86838148       1.65702258      12.39709879        5       0.00072900      -0.00047986      -0.00684771
Al       5.73207361       1.65699975      12.39755258        5       0.00085872      -0.00056114      -0.00714899
Al       8.59599846       1.65691318      12.39631375        5       0.00087821      -0.00061219      -0.00532798
Al       1.43639686       4.13733479      12.39616909        5       0.00072844      -0.00025065      -0.00529727
Al       4.30037081       4.13726148      12.39770664        5       0.00075207      -0.00032838      -0.00788040
Al       7.16407743       4.13737933      12.39783675        5       0.00088458      -0.00033386      -0.00792303
Al      10.02771521       4.13722735      12.39676690        5       0.00100614      -0.00014843      -0.00614628
Al       2.86837574       6.61729389      12.39517088        5       0.00078605      -0.00015051      -0.00378077
Al       5.73216252       6.61740933      12.39646441        5       0.00091085      -0.00019031      -0.00584824
Al       8.59606805       6.61735967      12.39656906        5       0.00080729      -0.00012003      -0.00604047
Al      11.45976295       6.61727203      12.39567556        5       0.00104803      -0.00015014      -0.00417924
Al       4.30017285       9.09723652      12.39497213        5       0.00070861      -0.00020362      -0.00298279
Al       7.16421471       9.09736776      12.39561550        5       0.00082276      -0.00041644      -0.00457591
Al      10.02797519       9.09743525      12.39685903        5       0.00094085      -0.00037914      -0.00560281
Al      12.89165127       9.09748049      12.39561614        5       0.00085156      -0.00042247      -0.00326701
Al      -0.00002200       0.00305497      14.68904025        4       0.00004656       0.00054500       0.00375439
Al       2.86353525       0.00309976      14.68809883        4       0.00016581       0.00049809       0.00386490
Al       5.72745473       0.00297513      14.68878021        4       0.00023684       0.00046138       0.00388929
Al       8.59116110       0.00291444      14.68939949        4      -0.00000047       0.00052689       0.00371175
Al       1.43153197       2.48318484      14.68770704        4       0.00005234       0.00053602       0.00373700
Al       4.29522905       2.48323908      14.68629041        4       0.00020349       0.00039825       0.00385375
Al       7.15925925       2.48321960      14.68609364        4       0.00038892       0.00035018       0.00370756
Al      10.02320853       2.48320457      14.68715398        4       0.00026788       0.00049503       0.00370479
Al       2.86340102       4.96346580      14.68751925        4       0.00003572       0.00065568       0.00377907
Al       5.72728909       4.96359668      14.68605165        4       0.00031748       0.00058521       0.00372508
Al       8.59118377       4.96361253      14.68622884        4       0.00046013       0.00062993       0.00367788
Al      11.45468183       4.96349712      14.68760948        4       0.00013954       0.00070293       0.00373428
Al       4.29544221       7.44335993      14.68874928        4      -0.00000315       0.00059717       0.00366079
Al       7.15928112       7.44351311      14.68766043        4       0.00023565       0.00062449       0.00379430
Al      10.02301280       7.44335585      14.68831327        4       0.00025599       0.00051232       0.00389702
Al      12.88679492       7.44336803      14.68959011        4      -0.00000419       0.00060235       0.00372632
Al       1.42982456       0.83012565      17.01842299        3      -0.00069866      -0.00201656       0.00109912
Al       4.29349759       0.82944599      17.01776785        3      -0.00057252      -0.00329144      -0.00323232
Al       7.15755137       0.82979323      17.01814139        3       0.00063856      -0.00364069      -0.00114190
Al      10.02128034       0.82996720      17.01822411        3       0.00043013      -0.00226337      -0.00156992
Al       2.86111782       3.30945599      17.01690933        3      -0.00183324      -0.00256071      -0.00905164
Al       5.72545353       3.30898757      17.01494623        3      -0.00135129      -0.00278758      -0.01301122
Al       8.59077337       3.30940035      17.01629591        3       0.00487698      -0.00265130      -0.01286938
Al      11.45312321       3.31007419      17.01812305        3      -0.00054144      -0.00174397      -0.00335153
Al       4.29358986       5.79026884      17.01723016        3      -0.00075318      -0.00082170      -0.00473729
Al       7.15773199       5.79036013      17.01555027        3       0.00027328      -0.00004222      -0.00959746
Al      10.02132880       5.79001307      17.01795159        3       0.00055184      -0.00284415      -0.00194604
Al      12.88502095       5.79051255      17.01840901        3      -0.00008692       0.00001420       0.00092764
Al       5.72557744       8.27058405      17.01816143        3       0.00019257       0.00025978      -0.00141473
Al       8.58931032       8.27054391      17.01818582        3      -0.00051361      -0.00061327      -0.00118721
Al      11.45313217       8.27061399      17.01854115        3       0.00000624       0.00021379       0.00308490
Al      14.31691629       8.27067688      17.01859576        3      -0.00034148       0.00042151       0.00348056
Al      -0.00573310       1.66426558      19.29810153        2      -0.00305278       0.00177855      -0.01309146
Al       2.86652201       1.66415193      19.29163054        2      -0.00112677       0.00117076      -0.01928415
Al       5.73116949       1.66787397      19.28537718        2       0.00073757      -0.00190477      -0.01807570
Al       8.59185182       1.67334964      19.28943384        2       0.00108928       0.00036907      -0.01334054
Al       1.43034665       4.12401442      19.29021566        2      -0.00065510      -0.00521518      -0.01683708
Al       4.29109065       4.12821400      19.28754514        2      -0.00240369      -0.00032260      -0.01165081
Al       7.17242295       4.12297433      19.27660312        2       0.00195282      -0.00083906      -0.00716127
Al      10.02200019       4.12574279      19.31739078        2       0.00351173      -0.00538235       0.00313455
Al       2.86892980       6.61052958      19.31876325        2      -0.00018687       0.00086436      -0.01046550
Al       5.73301153       6.61906444      19.29658525        2       0.00096179       0.00284601      -0.01109798
Al       8.58950684       6.61085079      19.29666418        2       0.00166592       0.00161839      -0.01182655
Al      11.45086920       6.60602207      19.30383641        2       0.00104836       0.00011120      -0.00922448
Al       4.30565175       9.10206837      19.30379841        2       0.00335004       0.00337268      -0.01571677
Al       7.16018255       9.09723496      19.33156244        2       0.00074141       0.00173272      -0.00754658
Al      10.01173055       9.10269133      19.30233593        2      -0.00406505       0.00295706      -0.01635391
Al      12.88705055       9.09768523      19.33778247        2      -0.00009575       0.00020988      -0.00022803
Al      -0.00666411      -0.00470683      21.69218902        1      -0.00241685      -0.00290392       0.00757747
Al       2.86368716      -0.00763808      21.69289329        1       0.00005126      -0.00318013       0.00873097
Al       5.72300149       0.02041309      21.67659885        1      -0.00167781      -0.00197159       0.00087556
Al       8.57539860       0.02467539      21.68333545        1      -0.00370156       0.00373639       0.00400483
Al       1.42946973       2.51268960      21.69232365        1      -0.00414304       0.00210168       0.00876610
Al       4.32020431       2.48355571      21.59233551        1      -0.00086300       0.00361531      -0.00184583
Al       7.14681355       2.47869473      21.60943044        1      -0.00657101       0.00528106      -0.01039920
Al       9.98358873       2.52020671      21.75090878        1      -0.00877752       0.00683397       0.01352554
Al       2.89272601       4.96072522      21.66795196        1       0.00194727       0.00348295      -0.00324471
Al       5.74514804       4.94401694      21.47351971        1       0.00993180      -0.00367829       0.07616813
Al       8.58241173       4.96791883      21.54447118        1      -0.01065061       0.00005664       0.03388571
Al      11.44844419       4.97747370      21.65696339        1       0.00608310       0.00771447      -0.00960385
Al       4.31615666       7.41743533      21.69982003        1      -0.00160600       0.00262141       0.00095928
Al       7.16122348       7.41455198      21.64589294        1      -0.00314695      -0.00169474       0.01192886
Al       9.99968120       7.41446300      21.67078343        1       0.00111052       0.00746469      -0.00261599
Al      12.88913349       7.43338623      21.70130929        1       0.00188239      -0.00267288       0.01219400
C        5.85398419       3.83506338      24.77808402        0       0.01011955       0.06877816       0.13431951
N        6.98775246       3.12942411      24.79471011        0      -0.16211240      -0.02443287      -0.09853525
C        8.00939458       4.03598162      24.79899866        0       0.03352334      -0.00871210       0.02392551
S        9.61922794       3.74635777      24.43494460        0       0.05869327      -0.03192252      -0.04042821
N        7.48495788       5.31143415      25.05133735        0      -0.11843589      -0.12464575       0.00331769
N        6.08893428       5.16708949      24.94875897        0       0.04624878      -0.05577406       0.08767970
H        4.84699216       3.42460558      24.67427985        0       0.13013031       0.05709030       0.00463578
H        7.90796863       6.07432557      24.51752531        0      -0.04792695       0.13258527      -0.01555453
H        5.50605076       5.91206446      24.56332692        0       0.05946000      -0.02876054      -0.01905954
