105
Lattice="11.45512985522207 0.0 0.0 5.727564927611035 9.92043345827187 0.0 0.0 0.0 31.691342951089922" Properties=species:S:1:pos:R:3:tags:I:1:forces:R:3 energy=-424.58984375 free_energy=-424.58984375 stress="0.006531236227601767 1.2167729437351227e-06 -3.157183527946472e-07 1.2167729437351227e-06 0.006579350680112839 1.7951242625713348e-06 -3.157183527946472e-07 1.7951242625713348e-06 0.0067245569080114365" pbc="T T F"
Al       1.40431875       0.89440467       9.95175498        6       0.00055151       0.00000775       0.00150775
Al       4.26807755       0.89171742       9.96327448        6       0.00044340      -0.00000447       0.00117968
Al       7.13172014       0.89136052       9.96856389        6       0.00066401       0.00005053       0.00106945
Al       9.99471672       0.89399961       9.96296480        6       0.00071890       0.00007513       0.00113778
Al       2.83298558       3.37786443       9.96101274        6       0.00053056      -0.00021610       0.00137685
Al       5.69716815       3.37415197       9.96006865        6       0.00053500      -0.00003816       0.00110566
Al       8.56216679       3.37412220       9.96074579        6       0.00064016      -0.00001010       0.00097771
Al      11.42713648       3.37727076       9.95969162        6       0.00061184      -0.00013285       0.00125052
Al       4.26529141       5.85866927       9.97254289        6       0.00054685      -0.00011060       0.00119856
Al       7.13171663       5.85624164       9.96821631        6       0.00046717      -0.00011444       0.00093211
Al       9.99732640       5.85616693       9.97209439        6       0.00052151      -0.00022139       0.00111892
Al      12.86001219       5.85903521       9.98258501        6       0.00059279      -0.00021200       0.00112790
Al       5.69953843       8.33664947       9.96642203        6       0.00060233      -0.00009901       0.00145412
Al       8.56548496       8.33495237       9.96748342        6       0.00048894      -0.00011977       0.00122094
Al      11.43010035       8.33462270       9.98179187        6       0.00056634      -0.00016445       0.00116930
Al      14.29133297       8.33723151       9.98084653        6       0.00073574      -0.00015834       0.00139191
Al       0.01421721       1.69828698      12.34999756        5       0.00005506       0.00029920       0.00252281
Al       2.87225534       1.69805768      12.35127470        5       0.00088954       0.00059266      -0.00114916
Al       5.73684409       1.69836259      12.35035836        5       0.00077193      -0.00044543      -0.00108764
Al       8.60539856       1.69767142      12.34716787        5       0.00084351      -0.00056121       0.00690560
Al       1.44538513       4.17912804      12.35911899        5       0.00020393       0.00026324       0.00169487
Al       4.30662096       4.18128451      12.35160630        5      -0.00015907      -0.00084931       0.00115917
Al       7.17195739       4.17995792      12.34357182        5       0.00088190       0.00034247       0.00532364
Al      10.03879050       4.17956401      12.35076198        5       0.00064333       0.00034880       0.00454677
Al       2.87838659       6.66280219      12.37167379        5       0.00075833      -0.00038398       0.00179627
Al       5.74009564       6.66501388      12.35710013        5       0.00012638       0.00052413       0.00336750
Al       8.60287533       6.66463787      12.35788578        5       0.00111145      -0.00019952       0.00082114
Al      11.46875859       6.66202062      12.37447724        5       0.00027772      -0.00028355      -0.00201394
Al       4.31141735       9.14195416      12.36705938        5       0.00017434       0.00053013       0.00224198
Al       7.17015527       9.14347814      12.36060132        5       0.00044444       0.00000037      -0.00348019
Al      10.03325419       9.14121934      12.36721305        5       0.00017129      -0.00051605      -0.00539671
Al      12.90251698       9.13905651      12.37636115        5      -0.00038225       0.00104335      -0.00437578
Al       0.02306288       0.04044802      14.66860456        4       0.00046091       0.00008612       0.00280221
Al       2.87350273       0.03593657      14.65377226        4       0.00077804       0.00025124       0.00292796
Al       5.74119635       0.03232539      14.64970334        4       0.00075889      -0.00024893       0.00494489
Al       8.61688966       0.03338130      14.67092196        4       0.00052318       0.00012976       0.00284378
Al       1.44474808       2.51032649      14.65050482        4       0.00069233       0.00010464       0.00295641
Al       4.30675221       2.50944269      14.63467201        4       0.00055531       0.00007647       0.00330610
Al       7.17621848       2.50535959      14.63344322        4       0.00059440       0.00010635       0.00276257
Al      10.04521469       2.51330291      14.64430058        4       0.00034629      -0.00019531       0.00259047
Al       2.88069975       4.99496823      14.65837652        4       0.00060476      -0.00008649       0.00267478
Al       5.74456042       4.99944859      14.63094889        4       0.00039917      -0.00033990       0.00302261
Al       8.61485893       4.99871190      14.63415649        4       0.00025051      -0.00032767       0.00312539
Al      11.47806223       4.99525698      14.66174360        4       0.00027422      -0.00015063       0.00236104
Al       4.31948743       7.48370207      14.67155593        4       0.00050209       0.00006242       0.00279363
Al       7.18008332       7.48636094      14.65415412        4       0.00023464      -0.00014600       0.00252816
Al      10.03570980       7.47610345      14.66483174        4       0.00100864       0.00034776       0.00273677
Al      12.90832655       7.47189657      14.67391359        4       0.00047474       0.00032391       0.00288933
Al       1.41316743       0.84063618      17.01290125        3       0.00074625       0.00032816       0.00330445
Al       4.26165895       0.83202384      16.96600433        3       0.00062395       0.00009808       0.00302816
Al       7.15206358       0.82469519      16.96669646        3      -0.00020904       0.00127361       0.00621612
Al      10.02960578       0.84079183      16.99952575        3       0.00056112       0.00016508       0.00290912
Al       2.84081855       3.29769878      16.96439724        3       0.00013585       0.00028497       0.00374749
Al       5.71004755       3.30816598      16.93161740        3       0.00039313       0.00004416       0.00299030
Al       8.58221287       3.30879874      16.93172746        3       0.00045931       0.00009126       0.00318298
Al      11.43889387       3.30467627      16.97214362        3       0.00075233       0.00017753       0.00307404
Al       4.28315606       5.80471380      16.96552638        3       0.00044653       0.00016885       0.00291832
Al       7.14697724       5.81657126      16.93515007        3       0.00069188       0.00038320       0.00252760
Al      10.02755838       5.81239793      16.96206918        3       0.00041217       0.00012625       0.00302183
Al      12.87916695       5.79932180      16.98239650        3       0.00060077       0.00011537       0.00308728
Al       5.72929895       8.30774251      16.99619208        3       0.00045242       0.00017164       0.00297856
Al       8.57595785       8.30663738      16.97825054        3       0.00106289       0.00005180       0.00401714
Al      11.44695832       8.28884657      16.99294391        3       0.00031826       0.00009696       0.00288601
Al      14.31333035       8.28618418      17.00118316        3       0.00060908       0.00014485       0.00291851
Al      -0.06189184       1.67689485      19.40830324        2      -0.00014025       0.00026153      -0.00864353
Al       2.77314761       1.64790082      19.38211745        2      -0.00032210      -0.00210235      -0.00771772
Al       5.63409512       1.65024645      19.23346447        2       0.00060453       0.00091542      -0.00040774
Al       8.55768693       1.68066821      19.27337429        2       0.00037323       0.00343461      -0.00798498
Al       1.35618593       4.12686487      19.27662836        2      -0.00202504       0.00094456      -0.00852786
Al       4.23496540       4.13624107      19.22666995        2      -0.00182955      -0.00173324       0.00074327
Al       7.10293387       4.17645737      19.19711099        2       0.00324510      -0.00661806      -0.00514417
Al       9.94753701       4.13336606      19.22386930        2       0.00073716      -0.00286520      -0.00618504
Al       2.80478148       6.63405154      19.31484191        2       0.00038180       0.00029551      -0.00439589
Al       5.69076200       6.64867508      19.23074150        2      -0.00112990       0.00352081      -0.00252087
Al       8.53928539       6.64397064      19.23449844        2      -0.00090891       0.00366923      -0.00733564
Al      11.42135308       6.65050504      19.31164051        2       0.00224990       0.00023920      -0.00096923
Al       4.23763722       9.12416421      19.33985932        2      -0.00055367      -0.00050722      -0.00867839
Al       7.11872453       9.14216125      19.37313331        2      -0.00070910      -0.00151106      -0.00750885
Al       9.96981401       9.11703833      19.34935521        2      -0.00173083       0.00406939      -0.00861118
Al      12.82763866       9.10653789      19.31846346        2      -0.00131622      -0.00325216       0.00250453
Al      -0.28689828      -0.04135312      21.92790382        1      -0.00221711       0.00006033       0.00081165
Al       2.70987901      -0.00966621      22.14369413        1      -0.00183044       0.00575131       0.00220736
Al       5.58126745       0.11561435      21.71895156        1      -0.00000117       0.00199335       0.00246861
Al       8.38037611       0.06089938      21.62215106        1       0.00236956       0.00088661      -0.00239413
Al       1.21255473       2.61857602      21.90712574        1       0.00053276      -0.00008128       0.00096586
Al       4.13333043       2.52440469      21.59497096        1       0.00676144      -0.00086843       0.00253826
Al       6.98399934       2.56009168      21.46973643        1       0.00040796      -0.01081918       0.00961675
Al       9.76098840       2.60398498      21.92068881        1      -0.00380076      -0.00672005      -0.00101378
Al       2.73649968       4.99362938      21.62609241        1       0.00083714      -0.00129429       0.00211692
Al       5.62377970       4.99757087      21.50206485        1      -0.00019831      -0.00053520      -0.01101900
Al       8.42136500       5.03347647      21.52756932        1      -0.00256602      -0.00002702      -0.00746890
Al      11.23479579       5.00481154      21.56603935        1      -0.00274247      -0.00118846       0.00198752
Al       4.13591526       7.41389984      21.68271395        1       0.00075296      -0.00165580       0.00255411
Al       6.98202076       7.47122608      21.67780586        1      -0.00069196      -0.00267485       0.00297759
Al       9.83811606       7.43974068      21.59997767        1      -0.00039164      -0.00569623       0.00627638
Al      12.69176548       7.42429751      22.11843911        1       0.00589741       0.00156640      -0.00070131
C        6.11525487       3.86809672      24.71874306        0       0.02672220      -0.04056635      -0.03817481
N        6.98293582       2.91981749      24.36646110        0      -0.04028898       0.00618049       0.03725177
C        8.22479189       3.36991182      24.70802756        0      -0.08422992       0.05254846      -0.00394442
S        9.72287160       2.64432883      24.35457298        0       0.01317983      -0.02051765      -0.00406978
N        8.10460910       4.60997123      25.26405681        0      -0.00365070       0.06757074      -0.04272464
N        6.74385180       4.95519935      25.31470634        0       0.05053553      -0.03248202       0.00934225
H        5.04820688       3.86772898      24.50862489        0       0.02603864      -0.01530158      -0.01038784
H        8.82387709       5.15112456      25.73059632        0      -0.02393056      -0.01242016       0.01370998
H        6.54571042       5.87981895      24.91008765        0       0.00303891       0.01457058      -0.02371151
