105
Lattice="11.45512985522207 0.0 0.0 5.727564927611035 9.92043345827187 0.0 0.0 0.0 31.691342951089922" Properties=species:S:1:pos:R:3:tags:I:1:forces:R:3 energy=-424.56689453125 free_energy=-424.56689453125 stress="0.0052685607224702835 9.597279131412506e-07 -3.045424818992615e-07 9.597279131412506e-07 0.005326742772012949 1.7099082469940186e-06 -3.045424818992615e-07 1.7099082469940186e-06 0.005478153936564922" pbc="T T F"
Al       1.42245137       0.83852607      10.01368989        6      -0.00035309       0.00076666      -0.00097025
Al       4.28659022       0.83833621      10.01531411        6      -0.00033606       0.00068113      -0.00080086
Al       7.15018911       0.83823078      10.01533028        6      -0.00036531       0.00072458      -0.00086082
Al      10.01363739       0.83849298      10.01470798        6      -0.00038048       0.00080362      -0.00086727
Al       2.85425261       3.31926455      10.01456988        6      -0.00039143       0.00083854      -0.00083971
Al       5.71831711       3.31891362      10.01467573        6      -0.00034213       0.00081007      -0.00068980
Al       8.58213491       3.31899007      10.01541649        6      -0.00032603       0.00082606      -0.00057256
Al      11.44567953       3.31937121      10.01488831        6      -0.00041525       0.00091590      -0.00079511
Al       4.28609462       5.79954909      10.01559131        6      -0.00039922       0.00091247      -0.00069030
Al       7.15036216       5.79928580      10.01618068        6      -0.00028731       0.00085933      -0.00038614
Al      10.01430112       5.79946674      10.01693538        6      -0.00034202       0.00092555      -0.00035288
Al      12.87758736       5.79962603      10.01704543        6      -0.00041495       0.00091818      -0.00050705
Al       5.71802367       8.27907343      10.01530587        6      -0.00036203       0.00075488      -0.00092867
Al       8.58244888       8.27900141      10.01610604        6      -0.00030036       0.00072492      -0.00063429
Al      11.44609697       8.27900744      10.01721462        6      -0.00038782       0.00075857      -0.00055629
Al      14.30934086       8.27915583      10.01625172        6      -0.00044223       0.00083705      -0.00089541
Al       0.00504527       1.65745570      12.38693961        5       0.00035994       0.00125099       0.00490439
Al       2.86855887       1.65682451      12.38516074        5       0.00035622       0.00129329       0.00421800
Al       5.73625571       1.65510183      12.38746319        5      -0.00045244       0.00177624       0.00419505
Al       8.59920452       1.65595793      12.39040840        5       0.00018599       0.00174352       0.00447077
Al       1.43662016       4.14163398      12.39146813        5       0.00049294      -0.00018383       0.00430623
Al       4.30069981       4.14128379      12.38681330        5       0.00048199      -0.00023634       0.00466751
Al       7.16796128       4.13977989      12.39039024        5      -0.00019672       0.00058417       0.00413358
Al      10.03180818       4.14126816      12.39336825        5      -0.00048314       0.00028921       0.00392267
Al       2.86847494       6.62167714      12.39455285        5       0.00076658      -0.00027420       0.00489596
Al       5.73326332       6.62093996      12.39077152        5       0.00055805       0.00001785       0.00448024
Al       8.60099449       6.62023230      12.39537997        5      -0.00049503       0.00007561       0.00329973
Al      11.46278101       6.62009601      12.40013395        5      -0.00018461       0.00027830       0.00280560
Al       4.30051903       9.09682982      12.38910225        5       0.00058055       0.00118846       0.00535487
Al       7.16534826       9.09672524      12.38690306        5       0.00028430       0.00103657       0.00341805
Al      10.03135533       9.09494919      12.39248433        5      -0.00049965       0.00139461       0.00289317
Al      12.89420148       9.09486185      12.39302739        5      -0.00023607       0.00175575       0.00428355
Al       0.00272646       0.00470776      14.67916704        4      -0.00024427       0.00082516       0.00092637
Al       2.86264211       0.00222834      14.67379039        4       0.00001886       0.00091616       0.00105540
Al       5.73252130      -0.00149948      14.67900576        4      -0.00006957       0.00098663       0.00115349
Al       8.59582878      -0.00015575      14.68377183        4      -0.00010542       0.00096561       0.00098156
Al       1.42864605       2.48250912      14.67895984        4      -0.00007229       0.00097262       0.00068337
Al       4.29630718       2.48234968      14.66928166        4      -0.00012342       0.00077347       0.00078473
Al       7.16666891       2.48155366      14.67777049        4      -0.00006838       0.00075976       0.00080727
Al      10.02823667       2.48528680      14.68079521        4      -0.00014276       0.00083880       0.00091827
Al       2.86234220       4.97037745      14.67888583        4      -0.00015394       0.00065520       0.00083660
Al       5.72873379       4.96901136      14.67483413        4      -0.00011094       0.00069656       0.00018491
Al       8.59815769       4.96796639      14.68214107        4       0.00004800       0.00062792       0.00062773
Al      11.45837136       4.96835382      14.68793455        4      -0.00005187       0.00068422       0.00109994
Al       4.29472832       7.44991638      14.68941172        4       0.00003328       0.00080060       0.00027278
Al       7.16202676       7.44818106      14.68063694        4      -0.00013617       0.00082639       0.00086123
Al      10.02846058       7.44600043      14.69847374        4      -0.00014250       0.00066160       0.00082507
Al      12.88886955       7.44867518      14.69988676        4      -0.00009268       0.00066705       0.00077226
Al       1.41974602       0.82671314      16.99261182        3      -0.00015066       0.00075290       0.00072510
Al       4.28847703       0.81641015      16.97493001        3      -0.00095838       0.00011012      -0.00089965
Al       7.16696616       0.81105832      16.99089135        3      -0.00027315       0.00062669      -0.00093912
Al      10.02362242       0.82717338      16.99332615        3       0.00037295       0.00047561       0.00063062
Al       2.85181502       3.30557566      16.97188857        3       0.00033494       0.00042825      -0.00002010
Al       5.72857911       3.30629165      16.96225776        3      -0.00043950      -0.00039859      -0.00122121
Al       8.60114428       3.30819896      16.99313320        3      -0.00054046      -0.00050122      -0.00512908
Al      11.44548764       3.30825655      17.00432774        3      -0.00010442      -0.00032354      -0.00151408
Al       4.28695239       5.79490772      16.98486716        3      -0.00004912       0.00040824      -0.00025146
Al       7.16043557       5.78741608      16.97617273        3       0.00001241       0.00146541      -0.00366623
Al      10.02680463       5.77625667      17.01088234        3       0.00213264      -0.00080798      -0.00540739
Al      12.88256304       5.79171724      17.01158202        3       0.00066131      -0.00051422      -0.00262788
Al       5.72524247       8.27499522      16.99556221        3      -0.00040265       0.00048840       0.00026063
Al       8.58826034       8.26917980      16.99525196        3       0.00042404       0.00079006      -0.00198644
Al      11.45509141       8.26752928      17.02023392        3       0.00105866       0.00089488      -0.00429361
Al      14.31575152       8.26754546      17.01982925        3      -0.00020649       0.00086530       0.00082361
Al      -0.02065871       1.66609878      19.29847380        2       0.00118976      -0.00099461       0.00256622
Al       2.84412764       1.66015280      19.25339206        2      -0.00174240      -0.00145151      -0.00162416
Al       5.71975354       1.65347311      19.20607577        2      -0.00297916      -0.00338833       0.00260273
Al       8.60392231       1.66704085      19.25116105        2      -0.00013143      -0.00209709       0.00244116
Al       1.41818784       4.10624125      19.26257519        2      -0.00009473      -0.00155742      -0.00278285
Al       4.29428047       4.13322345      19.22033398        2      -0.00269196      -0.00075842       0.00091370
Al       7.16763553       4.14855802      19.24774114        2       0.00031519      -0.00429793      -0.00718464
Al      10.01471708       4.10946009      19.34878970        2      -0.00020097      -0.00060332      -0.00597785
Al       2.87066266       6.62644389      19.31252698        2      -0.00182908       0.00082080      -0.00226263
Al       5.74149902       6.62049966      19.24726433        2      -0.00016594       0.00180952      -0.00356256
Al       8.58991866       6.61035534      19.24128494        2      -0.00013471       0.00291022      -0.00255471
Al      11.45812851       6.63109406      19.29075933        2       0.00043787       0.00061979      -0.00194302
Al       4.30738162       9.12255645      19.29633284        2       0.00007177      -0.00098145      -0.00095777
Al       7.16092063       9.10991347      19.28528549        2       0.00014858      -0.00008403       0.00010695
Al      10.00696465       9.11314140      19.28466032        2       0.00067532      -0.00134643      -0.00293383
Al      12.88818394       9.10189659      19.34435445        2       0.00075503       0.00011787       0.00352219
Al      -0.05398379      -0.02833394      21.77036278        1      -0.00605879      -0.00111587       0.00714452
Al       2.85049083      -0.04122253      21.79383961        1      -0.00245946      -0.00140139       0.00759547
Al       5.70269388       0.04249083      21.71032503        1      -0.00253753       0.00238836       0.00201248
Al       8.52879440       0.07731752      21.73627522        1      -0.00417984       0.00554184       0.00214928
Al       1.37799999       2.53930175      21.78992618        1      -0.00641176       0.00207537       0.00928453
Al       4.28700393       2.49190731      21.52753068        1      -0.00308879      -0.00202022       0.00278501
Al       7.08283040       2.49103345      21.48607176        1      -0.00077646       0.00241359       0.00239453
Al       9.88716785       2.57373675      21.84679226        1      -0.00236913      -0.00049719      -0.00156845
Al       2.90478696       4.96669630      21.60632304        1      -0.00249743      -0.00237122      -0.00042928
Al       5.74721951       4.94995209      21.52301661        1      -0.00257070       0.00097452      -0.00202692
Al       8.56066872       5.00810021      21.55768337        1      -0.00468911       0.00319109      -0.00631731
Al      11.47324032       5.00931844      21.56069150        1      -0.00164965      -0.00206918      -0.00254420
Al       4.29867138       7.42317989      21.68803239        1      -0.00273872       0.00063403      -0.00301778
Al       7.13969899       7.40163253      21.67402927        1      -0.00136700       0.00046414      -0.00308268
Al       9.99556406       7.42471655      21.62919266        1       0.00109470      -0.00041893      -0.00049423
Al      12.89004092       7.40608805      21.84349589        1      -0.00203904      -0.00204220       0.01359735
C        5.86153804       3.84102607      24.89085044        0       0.00616603       0.03552878      -0.02364313
N        6.93381143       3.11137604      24.60430673        0      -0.00244236      -0.00973588       0.01576564
C        8.01366511       3.94105954      24.68145160        0      -0.01174879      -0.02779452      -0.02592211
S        9.59099610       3.57667743      24.14823211        0       0.02140411      -0.01307819       0.00649546
N        7.60083808       5.18417051      25.11993453        0      -0.00230444      -0.00944037       0.01597164
N        6.18514248       5.15305470      25.20593211        0       0.02736131       0.02081454       0.00164596
H        4.82731086       3.51149085      24.87378085        0      -0.00575265      -0.02578533      -0.03975235
H        8.03546313       6.04263704      24.77899639        0       0.00262931       0.01352228      -0.01341928
H        5.73470139       5.89870217      24.65237892        0       0.01927515      -0.02096830       0.01282376
