105
Lattice="11.45512985522207 0.0 0.0 5.727564927611035 9.92043345827187 0.0 0.0 0.0 31.691342951089922" Properties=species:S:1:pos:R:3:tags:I:1:forces:R:3 energy=-424.2345275878906 free_energy=-424.2345275878906 stress="0.005927572958171368 8.726492524147034e-07 -2.6263296604156494e-07 8.726492524147034e-07 0.005986266769468784 1.6880221664905548e-06 -2.6263296604156494e-07 1.6880221664905548e-06 0.006144938059151173" pbc="T T F"
Al       1.40579815       0.87019308       9.99276763        6      -0.00011131       0.00075439      -0.00316073
Al       4.27058030       0.86866218      10.00092569        6      -0.00011500       0.00069309      -0.00296049
Al       7.13337443       0.86865013      10.00317341        6      -0.00017045       0.00071586      -0.00265965
Al       9.99613374       0.87007289       9.99830893        6      -0.00020559       0.00075451      -0.00261968
Al       2.83647716       3.35163372       9.99894696        6      -0.00020432       0.00091586      -0.00276308
Al       5.70145275       3.34975894      10.00243044        6      -0.00025430       0.00085982      -0.00278626
Al       8.56453850       3.35016893      10.00336396        6      -0.00026134       0.00072973      -0.00288721
Al      11.42810728       3.35251885      10.00056540        6      -0.00012998       0.00079926      -0.00302995
Al       4.26851699       5.83153329      10.00478098        6      -0.00019583       0.00091113      -0.00244752
Al       7.13461878       5.83001855      10.00665984        6      -0.00023757       0.00084596      -0.00268864
Al       9.99806192       5.83094915      10.01079605        6      -0.00015651       0.00079598      -0.00299500
Al      12.86071328       5.83229967      10.01191086        6      -0.00008683       0.00094411      -0.00262033
Al       5.70135949       8.30966894       9.99426989        6      -0.00012778       0.00095492      -0.00218444
Al       8.56683090       8.30835821      10.00036693        6      -0.00009342       0.00098924      -0.00275074
Al      11.43002453       8.30881366      10.00738199        6      -0.00002489       0.00091743      -0.00245750
Al      14.29191125       8.31077950      10.00281367        6      -0.00013758       0.00098615      -0.00193153
Al       0.00671736       1.68051821      12.35794255        5      -0.00026786       0.00141827       0.00912911
Al       2.86658995       1.67871241      12.35571681        5       0.00001953       0.00276973       0.00983212
Al       5.72843364       1.67551640      12.36675782        5       0.00091590       0.00319735       0.00646822
Al       8.59497457       1.67474307      12.36940285        5       0.00029417       0.00280468       0.00446891
Al       1.43617316       4.16520634      12.37408719        5       0.00095399       0.00002068       0.00582247
Al       4.29473475       4.16523691      12.36778360        5       0.00128464       0.00033371       0.00500938
Al       7.16307296       4.16182154      12.36963791        5       0.00014597       0.00084167       0.00468169
Al      10.03099066       4.16339568      12.37243345        5      -0.00030334       0.00002568       0.00443917
Al       2.86592232       6.64960411      12.38284477        5       0.00124093      -0.00073729       0.00639596
Al       5.72679871       6.64996456      12.37041241        5       0.00156782      -0.00073401       0.00536722
Al       8.59826983       6.64927013      12.37000544        5      -0.00046641      -0.00040280       0.00774783
Al      11.46238566       6.64797226      12.38117065        5       0.00087886       0.00005586       0.00708248
Al       4.29755415       9.12345056      12.37361385        5       0.00101633       0.00119103       0.00671938
Al       7.16494972       9.12578090      12.35475152        5      -0.00068031       0.00076979       0.01150575
Al      10.03082216       9.12399607      12.36626014        5      -0.00006600       0.00090215       0.01247312
Al      12.89307323       9.12328219      12.38314676        5       0.00023648       0.00121067       0.00778183
Al       0.00612149       0.02278234      14.66198933        4       0.00100534       0.00115626       0.00031944
Al       2.86899684       0.02285853      14.65854631        4      -0.00008228       0.00094288      -0.00044808
Al       5.73786780       0.02275390      14.67998132        4      -0.00027576       0.00023041      -0.00076006
Al       8.60452079       0.01993116      14.68985893        4      -0.00019057       0.00067413      -0.00070416
Al       1.43813310       2.49818114      14.66018239        4      -0.00011739       0.00023976      -0.00134756
Al       4.29586959       2.49739251      14.65039491        4      -0.00022534       0.00042072      -0.00090811
Al       7.16550919       2.48709485      14.65182481        4       0.00007617       0.00103660      -0.00092218
Al      10.03683947       2.48446822      14.65069340        4       0.00007822       0.00156409      -0.00041521
Al       2.87105412       4.98163991      14.67083651        4      -0.00015994       0.00103083      -0.00089498
Al       5.72794843       4.98264158      14.64908540        4       0.00031161       0.00100247      -0.00119200
Al       8.60800076       4.98216458      14.65035665        4      -0.00014559       0.00081275      -0.00090008
Al      11.47179691       4.98011910      14.67175112        4      -0.00024800       0.00086947      -0.00103433
Al       4.30412252       7.46787154      14.68111843        4      -0.00024386       0.00104007      -0.00075510
Al       7.16432740       7.47211995      14.65264609        4       0.00044226       0.00133286      -0.00075069
Al      10.03901197       7.46079846      14.67182509        4      -0.00000570       0.00153107      -0.00060448
Al      12.89952589       7.46719872      14.68294035        4      -0.00017161       0.00118354      -0.00002236
Al       1.42630809       0.84224141      17.01165218        3      -0.00489380      -0.00753665      -0.00468650
Al       4.27552304       0.82069093      16.98381214        3      -0.00156081      -0.00050848      -0.00344682
Al       7.15888172       0.81815858      17.00224911        3      -0.00014056       0.00018018      -0.00150667
Al      10.03686868       0.82658384      17.00003940        3      -0.00008564       0.00100571      -0.00035132
Al       2.84463836       3.29297768      16.96688755        3       0.00008918       0.00115757      -0.00004125
Al       5.70853215       3.29495255      16.93467874        3      -0.00022881       0.00115462       0.00030947
Al       8.59421499       3.29157259      16.93470105        3      -0.00093271       0.00099796      -0.00006533
Al      11.45769281       3.29115299      16.97189039        3      -0.00015372       0.00096371      -0.00037332
Al       4.28562368       5.80958002      16.97163523        3      -0.00034448      -0.00266513       0.00060982
Al       7.15832010       5.81413760      16.92506321        3      -0.00067685       0.00037120       0.00010667
Al      10.04207007       5.80283860      16.96386937        3      -0.00155869      -0.00011992      -0.00124154
Al      12.89484857       5.80174934      16.98748201        3      -0.00060366       0.00048959      -0.00027805
Al       5.72917326       8.29760748      16.98638343        3       0.00016046       0.00132865      -0.00012068
Al       8.59349444       8.30070798      16.97061113        3      -0.00050323       0.00101100      -0.00041308
Al      11.46183383       8.28602157      17.02490724        3      -0.00030662       0.00004099      -0.00896069
Al      14.31758493       8.28580407      17.02931111        3      -0.00005530       0.00080086      -0.00078721
Al      -0.02102399       1.64921615      19.40294581        2      -0.00263766       0.00211785      -0.00108591
Al       2.80384044       1.61365350      19.33687703        2      -0.00284556       0.00350229      -0.00345040
Al       5.65805840       1.63761007      19.21438387        2      -0.00035700      -0.00039564       0.00948626
Al       8.58439522       1.66507718      19.25458888        2      -0.00069406       0.00404136      -0.00415925
Al       1.39721831       4.11045986      19.25213479        2      -0.00252039       0.00068449      -0.00332597
Al       4.25752062       4.10399564      19.22098329        2      -0.00238463       0.00353620      -0.00036434
Al       7.11921107       4.16199807      19.16413571        2       0.00558306      -0.00981913       0.00429339
Al       9.98740381       4.10773637      19.19896435        2      -0.00088121       0.00209858       0.00162038
Al       2.82786678       6.60914055      19.30778679        2       0.00316243       0.00300129       0.00023047
Al       5.70859996       6.63763994      19.22509413        2      -0.00094556       0.00671670       0.00101307
Al       8.57561578       6.65383790      19.18630767        2      -0.00274532       0.00097948       0.00826948
Al      11.44493257       6.62893845      19.28680209        2      -0.00402582       0.00108188       0.00337933
Al       4.28390196       9.12634946      19.34044773        2      -0.00059442       0.00025422      -0.00015754
Al       7.15273272       9.12453321      19.34590921        2      -0.00207995      -0.00189896       0.00111600
Al      10.00516048       9.10344421      19.32645486        2      -0.00248458      -0.00032219      -0.00491335
Al      12.86225569       9.07620344      19.40920748        2      -0.00199525       0.00083839      -0.01069559
Al      -0.32193119      -0.04347227      22.03266004        1       0.00151207       0.00645883      -0.01279919
Al       2.76612977      -0.06858140      22.11327214        1      -0.00238672       0.00624202      -0.00960046
Al       5.63423655       0.08536599      21.74743353        1      -0.00289692      -0.00264094      -0.00837908
Al       8.41281012       0.09753361      21.67663189        1       0.00535522       0.00365410      -0.00823199
Al       1.23140992       2.58623701      21.95136651        1       0.00671491      -0.00259276      -0.01737709
Al       4.16258422       2.47371319      21.56838508        1       0.00312464       0.00444822       0.00252514
Al       6.99889916       2.53839113      21.46927922        1       0.00316858       0.00085628      -0.00465831
Al       9.77508739       2.64945665      21.94928323        1       0.00271808      -0.01779133      -0.01665357
Al       2.79741886       4.95332812      21.60689589        1      -0.00408139      -0.00019512      -0.00167715
Al       5.65904106       4.98399218      21.48198496        1       0.00028254      -0.00426808      -0.00100810
Al       8.49241049       5.04616290      21.43880018        1      -0.01088961       0.00107957      -0.00221440
Al      11.32579818       5.02043946      21.53925799        1       0.00131535      -0.00531058      -0.00503234
Al       4.17798696       7.40472153      21.64179686        1       0.00149016       0.00434884       0.00225541
Al       7.06498126       7.43607658      21.60642148        1      -0.00460578       0.00363588       0.00198142
Al       9.93758923       7.45252270      21.63978798        1      -0.00328585       0.00166698      -0.00682663
Al      12.78387379       7.40307702      22.08245785        1      -0.00307214      -0.00099684      -0.00506643
C        6.03506036       3.88771418      24.70918366        0      -0.02582946      -0.04275855      -0.03779100
N        7.00136707       3.02901351      24.38118352        0      -0.01751722      -0.02747001       0.00391843
C        8.18656363       3.62350413      24.66206458        0      -0.05445969       0.04253548       0.04965188
S        9.74241604       3.00799835      24.32980337        0      -0.04450977       0.01093138       0.02946986
N        7.94750536       4.84665864      25.30509374        0       0.03874856      -0.03015448      -0.04404652
N        6.54411634       5.03850891      25.26642652        0       0.04399381      -0.03747823       0.06109961
H        4.96881943       3.73678917      24.54631639        0       0.09331609      -0.00926649       0.00186165
H        8.51428481       5.65185179      25.02738733        0       0.00188852      -0.00873580       0.02202817
H        6.22341669       5.94062306      24.90567724        0      -0.00416143       0.04640382      -0.03407975
