105
Lattice="11.45512985522207 0.0 0.0 5.727564927611035 9.92043345827187 0.0 0.0 0.0 31.691342951089922" Properties=species:S:1:pos:R:3:tags:I:1:forces:R:3 energy=-424.25494384765625 free_energy=-424.25494384765625 stress="0.0060590351931750774 8.204951882362366e-07 -1.7508864402770996e-07 8.204951882362366e-07 0.006118274759501219 1.6298145055770874e-06 -1.7508864402770996e-07 1.6298145055770874e-06 0.006272910162806511" pbc="T T F"
Al       1.40462900       0.87469000       9.98335464        6      -0.00010160       0.00097758      -0.00334644
Al       4.26930020       0.87297288       9.99181130        6      -0.00020677       0.00084439      -0.00336252
Al       7.13200980       0.87301130       9.99466792        6      -0.00007466       0.00089630      -0.00306681
Al       9.99488867       0.87456013       9.98936105        6      -0.00003099       0.00097161      -0.00289837
Al       2.83505317       3.35592738       9.98994085        6      -0.00025726       0.00118999      -0.00307776
Al       5.70003144       3.35385309       9.99389606        6      -0.00028055       0.00110566      -0.00337326
Al       8.56289997       3.35427887       9.99416789        6      -0.00007738       0.00108509      -0.00321242
Al      11.42676625       3.35680355       9.99152275        6       0.00000125       0.00109049      -0.00307760
Al       4.26714992       5.83555378       9.99598785        6      -0.00016592       0.00127219      -0.00271243
Al       7.13330144       5.83392721       9.99737442        6      -0.00012884       0.00128199      -0.00285475
Al       9.99662970       5.83481962      10.00171299        6       0.00002148       0.00116029      -0.00313109
Al      12.85948893       5.83650428      10.00350684        6      -0.00003222       0.00121466      -0.00276638
Al       5.70023496       8.31391525       9.98387051        6      -0.00010917       0.00128229      -0.00229190
Al       8.56550010       8.31233903       9.99014083        6      -0.00009016       0.00135816      -0.00281035
Al      11.42881183       8.31285566       9.99796387        6       0.00002871       0.00120862      -0.00249673
Al      14.29065632       8.31516897       9.99379210        6      -0.00002856       0.00120146      -0.00209452
Al       0.00891858       1.68485293      12.35521837        5      -0.00063826       0.00128602       0.00414552
Al       2.86712380       1.68276521      12.35399605        5      -0.00030857       0.00314659       0.00609976
Al       5.72731704       1.67867383      12.36510742        5       0.00130035       0.00445963       0.00213866
Al       8.59444305       1.67747742      12.36751213        5       0.00081363       0.00402042      -0.00021459
Al       1.43731886       4.17100525      12.37403352        5       0.00079600      -0.00028970      -0.00029894
Al       4.29422057       4.17162373      12.36663533        5       0.00144494      -0.00006309      -0.00014314
Al       7.16253526       4.16691062      12.36807551        5       0.00032497       0.00124834      -0.00070783
Al      10.03190645       4.16861195      12.36937951        5       0.00022126      -0.00007859      -0.00005228
Al       2.86597625       6.65753662      12.38478616        5       0.00206760      -0.00207589       0.00010289
Al       5.72583849       6.65797110      12.37067741        5       0.00223615      -0.00198265      -0.00016661
Al       8.59870076       6.65750387      12.36779119        5      -0.00067407      -0.00162129       0.00269667
Al      11.46378055       6.65577967      12.38073897        5       0.00078948      -0.00136144       0.00229974
Al       4.29789125       9.12985189      12.37745960        5       0.00134585       0.00040123       0.00206786
Al       7.16655737       9.13341999      12.35493304        5      -0.00103968       0.00016944       0.00825296
Al      10.03258472       9.13192418      12.36781292        5      -0.00099679      -0.00014995       0.00979029
Al      12.89404488       9.13023241      12.38795982        5       0.00004936      -0.00003190       0.00289201
Al       0.00817468       0.02628388      14.66410229        4       0.00210688       0.00146262      -0.00011209
Al       2.87211761       0.02814486      14.66583736        4      -0.00026531       0.00105389      -0.00141093
Al       5.73855746       0.03011969      14.68976528        4      -0.00137905      -0.00406499      -0.00482026
Al       8.60512735       0.02585524      14.69971930        4      -0.00084214      -0.00226579      -0.00603725
Al       1.44278084       2.49987699      14.65783630        4      -0.00094577      -0.00080530      -0.00324998
Al       4.29689454       2.49895373      14.64670910        4      -0.00035113       0.00058950      -0.00158006
Al       7.16322290       2.48722918      14.64821302        4       0.00052098       0.00183881      -0.00186585
Al      10.03964840       2.48114121      14.64247671        4       0.00000445       0.00462937       0.00013863
Al       2.87506915       4.98234777      14.67263781        4      -0.00056041       0.00149120      -0.00268027
Al       5.72867797       4.98356988      14.64767804        4       0.00071264       0.00137527      -0.00207682
Al       8.60908110       4.98444439      14.64546023        4      -0.00019585       0.00102822      -0.00144805
Al      11.47429801       4.98177801      14.67285098        4      -0.00111805       0.00083746      -0.00424407
Al       4.30717228       7.46991348      14.68730802        4      -0.00095009       0.00156808      -0.00272879
Al       7.16552935       7.47700730      14.65042558        4       0.00092539       0.00157531      -0.00146137
Al      10.03992434       7.46491729      14.66949938        4       0.00019298       0.00238817      -0.00117532
Al      12.90170072       7.47075258      14.68342360        4      -0.00039909       0.00173864      -0.00006663
Al       1.42968408       0.83842033      17.02048665        3      -0.00895117      -0.00648320      -0.00833598
Al       4.27667113       0.82049673      16.98799719        3      -0.00197425       0.00086064      -0.00318298
Al       7.15630167       0.81750403      17.00676719        3       0.00029013       0.00111151      -0.00244634
Al      10.03877880       0.82559281      16.99711304        3       0.00046740       0.00359921       0.00286779
Al       2.84308851       3.28763045      16.96001135        3       0.00194854       0.00333765       0.00407822
Al       5.70315555       3.29158321      16.92884064        3       0.00190028       0.00416602       0.00109599
Al       8.59422654       3.28786502      16.92157603        3      -0.00481858       0.00603333       0.00199979
Al      11.46238886       3.28818416      16.96132026        3      -0.00123171       0.00142226      -0.00009572
Al       4.28753021       5.80828548      16.97007850        3      -0.00075277      -0.00420567       0.00010412
Al       7.15754869       5.81838538      16.92087274        3      -0.00111268      -0.00200729      -0.00052624
Al      10.04184156       5.81167035      16.95492017        3      -0.00391095      -0.00362798      -0.00218416
Al      12.89635184       5.80498656      16.98018967        3      -0.00353771      -0.00248353       0.00081357
Al       5.73290294       8.30015756      16.98301925        3       0.00043915       0.00240707       0.00160372
Al       8.59329133       8.30542666      16.96991406        3      -0.00037580       0.00118701      -0.00094202
Al      11.46176238       8.28777862      17.03275593        3      -0.00466520      -0.00298274      -0.02392923
Al      14.31338544       8.28924277      17.03591434        3       0.00382521      -0.00275859      -0.00823622
Al      -0.02456982       1.65012782      19.41577531        2      -0.00423147       0.00377138       0.00517966
Al       2.80425045       1.61004353      19.35115773        2      -0.00465439       0.00666095      -0.00269227
Al       5.65841124       1.64770836      19.21698140        2      -0.00038061      -0.00374127       0.01809420
Al       8.57682029       1.67210656      19.25605651        2      -0.00089446       0.00539535      -0.00077210
Al       1.39415340       4.11644264      19.25131209        2      -0.00378269      -0.00064346       0.00449639
Al       4.25099038       4.09652849      19.21974377        2      -0.00245866       0.00901752       0.00770424
Al       7.10910324       4.16875708      19.16304389        2       0.01197688      -0.01716580       0.00864193
Al       9.98618409       4.11093526      19.17652710        2      -0.00225266       0.00544339       0.03014431
Al       2.82286107       6.59767166      19.29967847        2       0.00559292       0.00836762       0.01050326
Al       5.69935890       6.63798189      19.22240072        2      -0.00043680       0.01161226       0.01320335
Al       8.57343911       6.65526729      19.18272013        2      -0.00552893      -0.00005090       0.03370264
Al      11.43705666       6.61848670      19.29220784        2      -0.00385476       0.00547465       0.01019765
Al       4.28069848       9.13098723      19.33827423        2      -0.00151287      -0.00130707       0.00789456
Al       7.14986764       9.12736707      19.36353162        2      -0.00447869      -0.00483183       0.01069173
Al      10.00074490       9.10487645      19.33701268        2      -0.00392172      -0.00044368      -0.00093437
Al      12.85133697       9.06712956      19.40529426        2      -0.00620462       0.00198556      -0.03171141
Al      -0.36522567      -0.03845624      22.06218833        1       0.00902835       0.00244970      -0.01762919
Al       2.75443069      -0.06377865      22.15287431        1      -0.00300526       0.00475059      -0.01651569
Al       5.62889814       0.08622611      21.74027421        1      -0.00323280       0.00203468      -0.00540406
Al       8.40389005       0.07929629      21.64074318        1       0.00548585       0.01525086       0.00162161
Al       1.22923615       2.58794369      21.94235370        1       0.00174540       0.00135850      -0.01041843
Al       4.15366083       2.47962925      21.57787495        1       0.00487534       0.00223080      -0.00284158
Al       6.99242823       2.54717025      21.48750265        1       0.00445756      -0.00169046      -0.01225581
Al       9.77121153       2.66368080      21.96975400        1       0.00758697      -0.02042203      -0.01388453
Al       2.77550678       4.96014488      21.61845074        1      -0.00088961       0.00049123      -0.00193438
Al       5.64726594       4.98893632      21.48217124        1       0.00116049      -0.00422575       0.00040632
Al       8.48454229       5.03856073      21.43797152        1      -0.01405314       0.00451295      -0.00303059
Al      11.28734101       5.02879545      21.55888097        1       0.00649835      -0.00773463      -0.00844951
Al       4.15742760       7.39760184      21.63876849        1       0.00473269       0.00941447       0.00383410
Al       7.05220388       7.44144636      21.60216789        1      -0.00803262       0.00687157       0.00399944
Al       9.91390380       7.46049661      21.65202918        1      -0.00416082       0.00207529      -0.01094909
Al      12.76119442       7.41560738      22.05967201        1      -0.00270427      -0.00264526      -0.00310832
C        6.06408549       3.88587687      24.68504614        0      -0.00224584       0.02011675       0.01414375
N        7.01394295       3.00845420      24.36615372        0      -0.00054491       0.01104299       0.00933370
C        8.20464745       3.58114307      24.67376992        0       0.00525529      -0.02747240       0.02145024
S        9.74103142       2.92096483      24.36500902        0       0.00666868      -0.00270589      -0.00655160
N        7.99124921       4.79019906      25.33889800        0      -0.02224840       0.01143126      -0.03110250
N        6.59035832       5.01561440      25.28226204        0      -0.02947964       0.02230730       0.01249434
H        4.99972799       3.76421622      24.50588456        0      -0.00205217      -0.01361142      -0.01505382
H        8.56623476       5.59834872      25.08959493        0       0.03776862      -0.04246970       0.02581078
H        6.30148761       5.92739281      24.90358250        0       0.04321603      -0.06214277       0.02149628
