105
Lattice="11.45512985522207 0.0 0.0 5.727564927611035 9.92043345827187 0.0 0.0 0.0 31.691342951089922" Properties=species:S:1:pos:R:3:tags:I:1:forces:R:3 energy=-424.42437744140625 free_energy=-424.42437744140625 stress="0.005581943318247795 1.1008232831954956e-06 -2.407468855381012e-07 1.1008232831954956e-06 0.005637786351144314 1.6614794731140137e-06 -2.407468855381012e-07 1.6614794731140137e-06 0.0057878755033016205" pbc="T T F"
Al       1.40918280       0.85814964      10.01221946        6      -0.00011519       0.00048527      -0.00180190
Al       4.27416990       0.85713971      10.01917878        6      -0.00020175       0.00044301      -0.00210082
Al       7.13732539       0.85704306      10.02013773        6      -0.00033062       0.00047930      -0.00194958
Al       9.99980416       0.85805422      10.01670051        6      -0.00012771       0.00054627      -0.00205204
Al       2.84049543       3.34000174      10.01747694        6      -0.00018431       0.00031936      -0.00199726
Al       5.70545288       3.33873935      10.01986310        6      -0.00026291       0.00026332      -0.00193166
Al       8.56910760       3.33904957      10.02228062        6      -0.00029816       0.00028240      -0.00231273
Al      11.43193914       3.34091717      10.01926948        6      -0.00017481       0.00033103      -0.00202448
Al       4.27247551       5.82070241      10.02267188        6      -0.00019095       0.00009737      -0.00226510
Al       7.13835276       5.81947116      10.02578826        6      -0.00028761       0.00017548      -0.00263882
Al      10.00202893       5.82039461      10.02900857        6      -0.00029104       0.00014764      -0.00252302
Al      12.86430628       5.82086777      10.02836526        6      -0.00022680       0.00021491      -0.00232314
Al       5.70470902       8.29825650      10.01604506        6      -0.00009346       0.00033073      -0.00267625
Al       8.57053734       8.29759291      10.02131108        6      -0.00026253       0.00028914      -0.00274838
Al      11.43350932       8.29793352      10.02606336        6      -0.00030975       0.00027956      -0.00286619
Al      14.29567021       8.29900886      10.02080714        6      -0.00022694       0.00035912      -0.00241152
Al       0.00273202       1.67098594      12.38535034        5       0.00012741      -0.00031519      -0.00902764
Al       2.86606013       1.67167375      12.38051762        5      -0.00108315      -0.00042814      -0.00741648
Al       5.73148263       1.67215082      12.38845172        5      -0.00090081      -0.00325023      -0.01281432
Al       8.59704120       1.67163586      12.39012999        5      -0.00053110      -0.00288376      -0.01207164
Al       1.43563327       4.14680083      12.39084719        5      -0.00133703       0.00399508      -0.01161798
Al       4.29841697       4.14674044      12.38649787        5      -0.00273027       0.00421085      -0.01238653
Al       7.16428517       4.14791023      12.38891671        5      -0.00083951       0.00203400      -0.01129878
Al      10.02835267       4.14743123      12.39377695        5       0.00079829       0.00289785      -0.01417090
Al       2.86831652       6.62682515      12.39622928        5      -0.00276228       0.00479024      -0.01354255
Al       5.73163945       6.62736350      12.38593344        5      -0.00249956       0.00496129      -0.01085438
Al       8.59568627       6.62679667      12.39316312        5       0.00036881       0.00506992      -0.01222072
Al      11.45982369       6.62720355      12.40003003        5       0.00073684       0.00371459      -0.01258482
Al       4.30001696       9.10942572      12.38410582        5      -0.00127603       0.00228700      -0.00878240
Al       7.16042678       9.10773592      12.37729628        5      -0.00037045       0.00291242      -0.00648780
Al      10.02529217       9.10583640      12.38512794        5       0.00174341       0.00230686      -0.00616618
Al      12.89196167       9.10836290      12.39133027        5       0.00010278       0.00114273      -0.01046816
Al       0.00032704       0.01494669      14.66154738        4       0.00080448       0.00034962       0.00289783
Al       2.86118195       0.01081840      14.64671698        4       0.00130655       0.00148788       0.00695343
Al       5.73513106       0.00552352      14.65998243        4      -0.00046261       0.00333083       0.00881135
Al       8.60142495       0.00648728      14.66740474        4      -0.00031072       0.00220609       0.00983206
Al       1.42544641       2.49534655      14.66816011        4       0.00285697      -0.00119554       0.00133968
Al       4.29283127       2.49399541      14.66276808        4       0.00026458      -0.00050606       0.00033868
Al       7.17093242       2.48842236      14.66441588        4      -0.00248003      -0.00145304       0.00043447
Al      10.02860659       2.49504447      14.67560343        4       0.00120400      -0.00393449      -0.00336996
Al       2.85994160       4.97993487      14.66954420        4       0.00254491      -0.00147287       0.00346918
Al       5.72579034       4.98095524      14.65408537        4       0.00001953      -0.00166061       0.00379363
Al       8.60408342       4.97692464      14.66582944        4      -0.00027688       0.00005556       0.00011390
Al      11.46400196       4.97686232      14.67375282        4       0.00083615      -0.00074087       0.00226393
Al       4.29545720       7.46362588      14.66615947        4       0.00197203      -0.00136893       0.00920953
Al       7.16078769       7.46048600      14.66288654        4       0.00012387       0.00094735       0.00075371
Al      10.03472882       7.45134043      14.67985286        4      -0.00019810       0.00087472       0.00098499
Al      12.89246505       7.45862234      14.68463780        4       0.00080917       0.00038782       0.00173819
Al       1.41465520       0.83179085      16.97763561        3      -0.00003037       0.00061107       0.00102868
Al       4.26975360       0.81907383      16.95529143        3       0.00012614       0.00044621       0.00111887
Al       7.16491607       0.81470818      16.97948157        3      -0.00028180       0.00001703       0.00137547
Al      10.03335339       0.82466909      16.99692245        3      -0.00007449       0.00055819       0.00105732
Al       2.85195997       3.30710008      16.96900540        3      -0.00131918      -0.00182856       0.00086176
Al       5.71888079       3.30110757      16.94106164        3      -0.00086258      -0.00028620       0.00102952
Al       8.59699848       3.29854975      16.94736173        3      -0.00036311      -0.00004520       0.00198828
Al      11.44428870       3.29693240      16.98157091        3       0.00226207      -0.00030841       0.00225776
Al       4.28044821       5.81121097      16.97103798        3       0.00116636      -0.00145125       0.00155589
Al       7.15983181       5.80441448      16.92789926        3      -0.00058525       0.00040205       0.00309187
Al      10.04332487       5.77590793      16.97435352        3      -0.00215087       0.00578966       0.00213946
Al      12.89307301       5.79492527      16.99335514        3      -0.00026905       0.00077873       0.00111764
Al       5.72299489       8.29410509      16.98582174        3       0.00023894      -0.00000048       0.00045441
Al       8.58948521       8.29090435      16.96184225        3       0.00004077       0.00056837       0.00113036
Al      11.46636319       8.28474145      16.98584215        3      -0.00075216      -0.00102274       0.01391248
Al      14.32415614       8.27971831      17.00939009        3      -0.00155690       0.00085773       0.00259104
Al      -0.00990507       1.64765157      19.36794481        2      -0.00213738       0.00057314       0.00439520
Al       2.80159421       1.62575563      19.29183768        2       0.00609113       0.00078264       0.01787028
Al       5.65747687       1.60946038      19.20803176        2       0.00385351       0.00956677       0.00764102
Al       8.60419844       1.64655494      19.25100737        2      -0.00448869       0.00371649       0.00491352
Al       1.40829434       4.09179337      19.25255855        2      -0.00047699       0.00495302       0.00549375
Al       4.26855622       4.12484743      19.21479959        2       0.00049544      -0.00397760       0.00710888
Al       7.14971547       4.13551095      19.16532753        2      -0.00617259       0.00781856       0.00917134
Al       9.99437932       4.09931235      19.25602295        2      -0.00072320       0.00183672      -0.00576372
Al       2.83975367       6.64006707      19.32585903        2      -0.00140866      -0.01087716       0.00290256
Al       5.73253227       6.64485461      19.22333337        2      -0.00383082      -0.00658106       0.00636807
Al       8.58240723       6.65622890      19.19720820        2      -0.00078219      -0.00594021       0.00360253
Al      11.46380536       6.65096950      19.28037553        2      -0.00239939      -0.00587153       0.00181291
Al       4.29515286       9.11274562      19.34100192        2      -0.00124246       0.00291108       0.00054873
Al       7.15977306       9.11728541      19.30109519        2      -0.00127994       0.00058316       0.01148656
Al      10.01795584       9.09596420      19.29868717        2      -0.00334067       0.00197729       0.00974477
Al      12.89098909       9.10128321      19.41301317        2      -0.00700006      -0.00544018      -0.00202040
Al      -0.20281952      -0.05472391      21.94360618        1      -0.00943974       0.00262767       0.00403883
Al       2.79710106      -0.07901654      21.99824402        1      -0.00170633       0.00326178       0.00743737
Al       5.64921632       0.08128341      21.76028117        1       0.00059747      -0.00207466      -0.00300701
Al       8.43936034       0.14942676      21.76402350        1      -0.00186896      -0.01599381      -0.01420608
Al       1.23279687       2.58230833      21.96499963        1       0.01044478      -0.00394470      -0.01496028
Al       4.17978081       2.46209703      21.55741566        1       0.00204276       0.00227410      -0.00401079
Al       7.02420050       2.53173735      21.42449046        1      -0.00550227       0.00028269       0.00823136
Al       9.79484047       2.60368988      21.87992324        1       0.00217248       0.00843749       0.00491055
Al       2.85174767       4.93008739      21.57755217        1      -0.00605159       0.00802810       0.00795711
Al       5.70069224       4.96380409      21.51984511        1      -0.00804043       0.00428157      -0.01464142
Al       8.50073609       5.05337159      21.45105108        1       0.00314283      -0.00344356      -0.00371267
Al      11.42192040       4.99908694      21.49244301        1      -0.01463038       0.00551095       0.01645756
Al       4.23436940       7.42828110      21.63987280        1      -0.00810047      -0.00905404       0.00306224
Al       7.09729782       7.42365798      21.61311733        1      -0.00243654       0.00042948       0.00077379
Al      10.01147434       7.43695954      21.59325149        1      -0.01014945       0.00080888       0.01202977
Al      12.84206038       7.36469794      22.16310027        1      -0.00722574       0.01144098      -0.03303067
C        5.97214665       3.88513382      24.75969233        0       0.06491541       0.01447392       0.00372539
N        6.97200878       3.06979024      24.43296686        0      -0.00043380       0.01711221       0.01345291
C        8.12800636       3.75726956      24.62896697        0      -0.04636455      -0.02266799       0.00972752
S        9.70035241       3.23464739      24.25589361        0       0.01534026      -0.02295132       0.00722026
N        7.85044915       4.99613415      25.20715522        0      -0.03117375      -0.01128712       0.01759716
N        6.43447005       5.08347000      25.28170013        0      -0.03021424      -0.01377341      -0.01285723
H        4.91037204       3.69735273      24.61802841        0       0.04636726      -0.03937022       0.00304955
H        8.33136251       5.82282538      24.84229264        0       0.00744713       0.00205826       0.01008632
H        6.02030155       5.92977480      24.87239488        0       0.06514869       0.02661906       0.00765388
