105
Lattice="11.45512985522207 0.0 0.0 5.727564927611035 9.92043345827187 0.0 0.0 0.0 31.691342951089922" Properties=species:S:1:pos:R:3:tags:I:1:forces:R:3 energy=-424.4797058105469 free_energy=-424.4797058105469 stress="0.007038966752588749 1.2097880244255066e-06 -2.183951437473297e-07 1.2097880244255066e-06 0.007079223170876503 3.0868686735630035e-06 -2.183951437473297e-07 3.0868686735630035e-06 0.007405522745102644" pbc="T T F"
Al       1.40848998       0.89292850       9.94798229        6       0.00007166       0.00119088      -0.00014979
Al       4.27179104       0.89042687       9.95686966        6       0.00014671       0.00116353      -0.00017973
Al       7.13609562       0.88979237       9.96257910        6       0.00026194       0.00128300      -0.00050302
Al       9.99966014       0.89231736       9.95853648        6       0.00019505       0.00127778      -0.00082022
Al       2.83719647       3.37562442       9.95599246        6       0.00010818       0.00119327      -0.00049691
Al       5.70088526       3.37260650       9.95357297        6       0.00020749       0.00131609      -0.00106073
Al       8.56656777       3.37228541       9.95417025        6       0.00035536       0.00125531      -0.00112554
Al      11.43178379       3.37481883       9.95441225        6       0.00014045       0.00126057      -0.00064381
Al       4.26958085       5.85670544       9.96700574        6       0.00010531       0.00111803      -0.00079380
Al       7.13538889       5.85461210       9.96120393        6       0.00008996       0.00098894      -0.00125390
Al      10.00145198       5.85420826       9.96460563        6       0.00017887       0.00106660      -0.00060071
Al      12.86437767       5.85669709       9.97578430        6       0.00011109       0.00109395      -0.00040013
Al       5.70391260       8.33505812       9.96291582        6       0.00008936       0.00109444      -0.00040051
Al       8.56926292       8.33350058       9.96170210        6       0.00008329       0.00100102      -0.00007488
Al      11.43431964       8.33265188       9.97512269        6       0.00013155       0.00109511       0.00014407
Al      14.29626549       8.33495223       9.97620112        6       0.00017112       0.00115678      -0.00020615
Al       0.01680656       1.70055748      12.34783656        5      -0.00100627       0.00028989       0.00307929
Al       2.87090458       1.70496665      12.36363294        5       0.00380518      -0.00734134      -0.02278024
Al       5.73748570       1.70462348      12.34538001        5       0.00042624      -0.00552034       0.00110344
Al       8.60477537       1.70192276      12.32941695        5       0.00081734      -0.00082035       0.01405873
Al       1.44628378       4.17820371      12.34695554        5      -0.00014388       0.00202622       0.00658782
Al       4.30736711       4.18139763      12.34007186        5      -0.00036494       0.00074761       0.00863237
Al       7.17004114       4.17959281      12.32976472        5       0.00152537       0.00193298       0.01246248
Al      10.03749202       4.17743392      12.33369737        5       0.00096412       0.00252248       0.01208770
Al       2.87935843       6.65929206      12.35934935        5       0.00015935       0.00253358       0.00713707
Al       5.74082877       6.66011964      12.34428009        5      -0.00084186       0.00365023       0.00974675
Al       8.59894985       6.66104770      12.35074671        5       0.00432790       0.00359593       0.00394805
Al      11.46911193       6.65830239      12.36636414        5      -0.00026227       0.00326051       0.00240541
Al       4.31605000       9.14280319      12.36343419        5      -0.00249889       0.00124790       0.00416307
Al       7.16878302       9.14341118      12.37511392        5       0.00324001       0.00189668      -0.03642225
Al      10.03460730       9.14107501      12.38642103        5      -0.00043179       0.00089623      -0.05107623
Al      12.90537467       9.13785174      12.37571043        5      -0.00232150       0.00371760      -0.00647142
Al       0.02252097       0.03937996      14.67319320        4      -0.00068393       0.00161224       0.00020716
Al       2.87335840       0.03182879      14.65020707        4       0.00003838       0.00654219       0.00842206
Al       5.74145669       0.03310531      14.65475804        4       0.00078082       0.00136655       0.00336133
Al       8.61688580       0.03527829      14.67464228        4      -0.00040082       0.00099952      -0.00061493
Al       1.44724128       2.51144068      14.65406789        4      -0.00019594       0.00083601       0.00168313
Al       4.30886506       2.50965674      14.63784353        4       0.00009424       0.00153040       0.00178168
Al       7.17657555       2.50701247      14.63693712        4       0.00011742       0.00141086       0.00072341
Al      10.04551555       2.51134188      14.64465716        4      -0.00065810       0.00134926       0.00036499
Al       2.88275706       4.99327948      14.66147794        4       0.00004695       0.00104626      -0.00012592
Al       5.74674228       4.99836641      14.63530837        4      -0.00026406       0.00095980       0.00089792
Al       8.61363030       4.99846210      14.63778744        4      -0.00027267       0.00023820       0.00144406
Al      11.47754366       4.99546708      14.66600317        4      -0.00272978      -0.00134628      -0.00562550
Al       4.32190586       7.48257846      14.67587344        4      -0.00115533       0.00074035      -0.00042652
Al       7.17914917       7.48541901      14.65722917        4      -0.00092771      -0.00079267       0.00014265
Al      10.03483805       7.47682844      14.66627772        4       0.00126549       0.00150294       0.00098085
Al      12.90849782       7.47204519      14.67710550        4      -0.00032719       0.00162122       0.00045229
Al       1.41077751       0.81365290      17.02725125        3       0.01085514       0.05490135       0.00261394
Al       4.26552270       0.83081508      16.96532369        3      -0.00178414       0.01191917       0.02022124
Al       7.15199085       0.82384240      16.97145172        3      -0.00386216       0.02316194       0.01762601
Al      10.02653967       0.83894055      16.99685547        3      -0.00231286       0.00281404       0.00481963
Al       2.84164259       3.30284466      16.96633938        3      -0.00418405      -0.00421569       0.01989819
Al       5.70952494       3.30809134      16.94133527        3       0.00002225       0.00217025       0.00143346
Al       8.57983204       3.30058139      16.94077546        3      -0.00282466       0.01847675       0.00744408
Al      11.44343036       3.30762765      16.97033304        3       0.00098417       0.00114609       0.00633883
Al       4.27899438       5.81028367      16.96898401        3       0.00009637       0.00133744       0.00101477
Al       7.14308616       5.81807947      16.94369780        3       0.00722358      -0.00126530       0.00155591
Al      10.03715761       5.83508530      16.95740912        3      -0.03514123      -0.03149815       0.03212921
Al      12.87973044       5.80083162      16.97973506        3      -0.00218415      -0.00327586       0.02179638
Al       5.73275201       8.31331060      16.99432967        3      -0.02152767      -0.01808666       0.01264590
Al       8.57778176       8.31776797      16.97985263        3       0.00935973      -0.02894012       0.03372630
Al      11.45128187       8.30005085      17.01303525        3      -0.04458887      -0.02351209      -0.03082678
Al      14.29002164       8.28707626      17.00517807        3       0.03798038      -0.00445203      -0.00398332
Al      -0.06406473       1.67800773      19.39980961        2      -0.00132146       0.00254931      -0.00311782
Al       2.78461529       1.65100744      19.39967585        2      -0.00143795       0.00060459      -0.01292389
Al       5.64843662       1.67254891      19.25247289        2      -0.00444998      -0.00844256      -0.00191146
Al       8.55223166       1.68244195      19.29389571        2       0.00040966       0.00274905       0.00236078
Al       1.35651621       4.13919882      19.29810997        2      -0.00027885      -0.00105032      -0.00145114
Al       4.23519250       4.13539754      19.24766725        2      -0.00322600       0.00257897       0.00409078
Al       7.09639724       4.18359975      19.24718739        2       0.00929448      -0.02019121      -0.04085009
Al       9.94951497       4.13779837      19.23228818        2       0.00596484      -0.00608822       0.03333720
Al       2.80238257       6.63227135      19.32354321        2      -0.00045534       0.00092876       0.00942157
Al       5.68628682       6.64540727      19.23748897        2      -0.00382169       0.00669494       0.02607738
Al       8.54050337       6.63036974      19.26877057        2      -0.01202016       0.02038361      -0.02412484
Al      11.41959090       6.63685285      19.34445272        2       0.00242614       0.00374935      -0.00104044
Al       4.23135602       9.11720851      19.33150105        2       0.00087491       0.00165956       0.00043883
Al       7.11178154       9.14160014      19.38056601        2      -0.00040884      -0.00774984       0.00348712
Al       9.97353380       9.12577165      19.36672491        2      -0.01543168       0.00930212      -0.02347601
Al      12.81155209       9.09365465      19.29611822        2       0.02933439       0.02909686       0.10231414
Al      -0.25356838      -0.02285489      21.87544262        1      -0.00391865       0.01824563      -0.00639920
Al       2.71419782       0.02595782      22.08687850        1      -0.00331973       0.00181049       0.00286423
Al       5.58914959       0.10770373      21.71201492        1       0.00843444      -0.01833920      -0.01382908
Al       8.42413966       0.00154609      21.62689203        1      -0.03252666       0.05494718      -0.02996184
Al       1.23265593       2.60455698      21.87035049        1      -0.00490923      -0.00818506      -0.00810853
Al       4.14641848       2.53708254      21.64155201        1       0.00812715      -0.00133044      -0.01917536
Al       6.98655840       2.55707440      21.49737697        1       0.02743118      -0.04861744       0.05333604
Al       9.78966005       2.59459103      21.91239323        1      -0.00463574      -0.05473496       0.10213962
Al       2.73291911       5.00122605      21.65052013        1       0.00069768      -0.00618798      -0.00148932
Al       5.62116100       4.99546063      21.55484377        1      -0.01227844       0.00491333      -0.05504413
Al       8.43161178       5.01069959      21.56002048        1      -0.01480777       0.00606866      -0.06115915
Al      11.22218350       5.00614859      21.60591776        1       0.04663326      -0.02951162       0.00195878
Al       4.13988187       7.40944247      21.69391559        1       0.00403350       0.00693500      -0.00009845
Al       6.99175656       7.46626974      21.69658217        1       0.00200524      -0.00646170      -0.02797309
Al       9.83532245       7.42979134      21.60585227        1       0.00427800       0.01353454       0.04519179
Al      12.69920920       7.44042420      22.09321065        1       0.00555261      -0.00123441      -0.01931270
C        6.09899679       3.85601441      24.70218995        0      -0.06120099      -0.10264924      -0.12915222
N        6.97581717       2.90965160      24.37769849        0       0.16111432      -0.18806076      -0.01331736
C        8.21327544       3.40864458      24.65770213        0       0.17455056      -0.31665125      -0.04606555
S        9.74286205       2.66354327      24.41801094        0      -0.41075176       0.13140257      -0.09506531
N        8.08871129       4.69410123      25.11501789        0       0.62355644       0.45536962       0.24087028
N        6.71357740       4.96861464      25.23123611        0       0.10266456       0.28110671       0.26713854
H        5.03057423       3.80812316      24.52435268        0      -0.06023887      -0.00222316      -0.02586862
H        8.78061437       5.11478426      25.75493913        0      -0.49536404      -0.20472385      -0.31714180
H        6.45248123       5.88688548      24.84922339        0      -0.02325670      -0.07569487      -0.03918484
