105
Lattice="11.45512985522207 0.0 0.0 5.727564927611035 9.92043345827187 0.0 0.0 0.0 31.691342951089922" Properties=species:S:1:pos:R:3:tags:I:1:forces:R:3 energy=-424.2763366699219 free_energy=-424.2763366699219 stress="0.005742552690207958 6.477348506450653e-07 -2.635642886161804e-07 6.477348506450653e-07 0.005803863983601332 1.9012950360774994e-06 -2.635642886161804e-07 1.9012950360774994e-06 0.005988255143165588" pbc="T T F"
Al       1.40792576       0.86250826      10.00320048        6       0.00044034       0.00036311      -0.00219411
Al       4.27286080       0.86131430      10.01001782        6       0.00038679       0.00033576      -0.00190561
Al       7.13587775       0.86127349      10.01187690        6       0.00038050       0.00031463      -0.00198614
Al       9.99852657       0.86242453      10.00803871        6       0.00035348       0.00031530      -0.00217520
Al       2.83901366       3.34404333      10.00871399        6       0.00040002       0.00038909      -0.00219894
Al       5.70401617       3.34259394      10.01175985        6       0.00035065       0.00030267      -0.00222570
Al       8.56742113       3.34291539      10.01341058        6       0.00028349       0.00034250      -0.00239654
Al      11.43052008       3.34503286      10.01083959        6       0.00038612       0.00030464      -0.00250582
Al       4.27107611       5.82433357      10.01395417        6       0.00036533       0.00037641      -0.00207449
Al       7.13693292       5.82305015      10.01640008        6       0.00039685       0.00031962      -0.00216361
Al      10.00049949       5.82392883      10.02009825        6       0.00035944       0.00031344      -0.00226486
Al      12.86297615       5.82470062      10.02001340        6       0.00043751       0.00043995      -0.00201226
Al       5.70355191       8.30211208      10.00510970        6       0.00036999       0.00046976      -0.00195478
Al       8.56909961       8.30113301      10.01048761        6       0.00038392       0.00044606      -0.00181397
Al      11.43215316       8.30155459      10.01585950        6       0.00046840       0.00044077      -0.00146375
Al      14.29432961       8.30297955      10.01140412        6       0.00040353       0.00049723      -0.00171097
Al       0.00459367       1.67406157      12.37793955        5       0.00045089       0.00094952      -0.00158230
Al       2.86445654       1.67538850      12.37678082        5       0.00167918      -0.00043682      -0.00294232
Al       5.72949169       1.67205673      12.37698397        5       0.00035411       0.00090703       0.00264867
Al       8.59614543       1.67110906      12.37789496        5      -0.00001746       0.00111087       0.00339439
Al       1.43514077       4.15352018      12.38091944        5       0.00087787       0.00153409       0.00347000
Al       4.29505403       4.15553744      12.37481457        5       0.00126193       0.00028497       0.00407585
Al       7.16238525       4.15305499      12.37952963        5       0.00092751       0.00102129       0.00222981
Al      10.02960607       4.15293515      12.37689623        5       0.00008979       0.00146929       0.00566085
Al       2.86506396       6.63733060      12.38504428        5       0.00171552       0.00073185       0.00483312
Al       5.72793549       6.63812909      12.37695989        5       0.00094607       0.00058219       0.00322284
Al       8.59523287       6.63773236      12.38312659        5       0.00118844       0.00046321       0.00064452
Al      11.46182815       6.63651666      12.39035264        5      -0.00027414       0.00097597       0.00157589
Al       4.29970249       9.11761502      12.38040091        5      -0.00036115      -0.00069063       0.00175953
Al       7.15963585       9.11661178      12.37588074        5       0.00239702       0.00037280      -0.00359616
Al      10.02740195       9.11424126      12.38614998        5       0.00098549       0.00107663      -0.00465928
Al      12.89370242       9.11511963      12.38688332        5      -0.00044001       0.00081614       0.00248486
Al       0.00190483       0.01812523      14.66350803        4       0.00085544       0.00039915       0.00052674
Al       2.86499197       0.01628731      14.65556806        4       0.00053857       0.00055622       0.00037914
Al       5.73549149       0.01475223      14.67267385        4       0.00052300       0.00025754       0.00022121
Al       8.60193430       0.01328631      14.68088014        4       0.00047302       0.00038081       0.00027321
Al       1.43131028       2.49685738      14.66676834        4       0.00101404      -0.00000932      -0.00027300
Al       4.29347446       2.49570607      14.66168139        4       0.00083554      -0.00014787      -0.00181146
Al       7.16693547       2.48740993      14.66103971        4       0.00026121       0.00025150      -0.00070049
Al      10.03157170       2.48848283      14.66528255        4       0.00068529       0.00045478      -0.00051284
Al       2.86504921       4.97892459      14.67302948        4       0.00078218       0.00066828      -0.00032801
Al       5.72593530       4.98059517      14.65444575        4       0.00073369       0.00032652      -0.00024524
Al       8.60469582       4.97876530      14.66062427        4       0.00052084       0.00013337      -0.00101732
Al      11.46709609       4.97759646      14.67455560        4       0.00049225       0.00023160      -0.00035279
Al       4.29969051       7.46430895      14.67477913        4       0.00040271       0.00042721       0.00029106
Al       7.16145568       7.46506009      14.66042237        4       0.00078124       0.00052801      -0.00054823
Al      10.03543153       7.45457760      14.67524755        4       0.00066811       0.00082650       0.00034979
Al      12.89498374       7.46150910      14.68294477        4       0.00071853       0.00057064       0.00055359
Al       1.41674366       0.82430205      16.97990152        3       0.00438038       0.00777641       0.01435832
Al       4.26817484       0.82095554      16.95322615        3       0.00418687      -0.00089924       0.01426943
Al       7.16264920       0.81358096      16.98011894        3      -0.00125839       0.00174777       0.00917655
Al      10.03593361       0.82314311      16.99675792        3      -0.00000740       0.00083131       0.00140762
Al       2.85194984       3.30282743      16.96714231        3      -0.00161889      -0.00203956       0.00275602
Al       5.71259934       3.29752729      16.94169130        3       0.00036022       0.00005008       0.00083798
Al       8.59668868       3.29501418      16.93828007        3      -0.00053764      -0.00036591       0.00276108
Al      11.45028331       3.29389727      16.97582449        3       0.00156295      -0.00003585       0.00173273
Al       4.28318652       5.81048929      16.97389834        3       0.00067407      -0.00059136       0.00076677
Al       7.15884068       5.80964694      16.92867914        3       0.00019350       0.00004513       0.00142751
Al      10.04191515       5.78936234      16.96945382        3       0.00026270       0.00113152       0.00042929
Al      12.89625595       5.79925908      16.98745778        3      -0.00058680      -0.00004912       0.00169804
Al       5.72701403       8.29912406      16.98176038        3       0.00023807      -0.00116535       0.00226281
Al       8.58793617       8.29799366      16.95757792        3       0.00216930      -0.00099297       0.00636501
Al      11.46992400       8.28866317      17.00222520        3      -0.00322412      -0.00188051       0.00330437
Al      14.31733340       8.28634908      17.01522120        3       0.00115472      -0.00119289       0.00284206
Al      -0.01100094       1.64617602      19.38895085        2      -0.00222489       0.00179812      -0.00456870
Al       2.80742181       1.62133285      19.32956621        2      -0.00137916      -0.00096289      -0.01068896
Al       5.65792951       1.62545791      19.22114629        2       0.00130497       0.00048206      -0.00461236
Al       8.59452315       1.65283107      19.26193211        2      -0.00082045       0.00290385      -0.00499002
Al       1.40752977       4.10038652      19.26151020        2      -0.00213114       0.00160892      -0.00726243
Al       4.26319307       4.11433788      19.21669501        2      -0.00020390      -0.00121816      -0.00068896
Al       7.13360911       4.15063447      19.17439938        2       0.00078799      -0.00170518      -0.00447284
Al       9.99110597       4.10379516      19.22192403        2       0.00070243       0.00058488      -0.00120735
Al       2.83070318       6.61885779      19.32533822        2       0.00193542       0.00169526      -0.00797650
Al       5.72291683       6.63688875      19.22324458        2      -0.00153426       0.00135928      -0.00200790
Al       8.58074057       6.65328045      19.19347123        2      -0.00074443      -0.00000879      -0.00243144
Al      11.45683301       6.63456535      19.28916604        2      -0.00229820       0.00080739      -0.00468683
Al       4.29207320       9.11720099      19.34374630        2      -0.00146204       0.00078178      -0.00500411
Al       7.15731392       9.12128693      19.32548243        2      -0.00034785      -0.00020928      -0.00162150
Al      10.01513415       9.09506380      19.32371036        2      -0.00203551       0.00257222      -0.00826814
Al      12.87645918       9.08838108      19.41471629        2      -0.00004254      -0.00039654      -0.00303133
Al      -0.24796815      -0.05042981      21.97614737        1      -0.00808878       0.00288376       0.00445758
Al       2.78511494      -0.07426215      22.04248247        1      -0.00119917       0.00293787       0.00432160
Al       5.64522669       0.08055139      21.75582990        1      -0.00016782       0.00004487      -0.00432508
Al       8.42580631       0.12041611      21.72579196        1       0.00271538      -0.00318378      -0.00889977
Al       1.22995612       2.58079730      21.95465767        1       0.00482011       0.00095332      -0.00421906
Al       4.16436433       2.46481514      21.57047286        1       0.00793734       0.00263405      -0.00132397
Al       7.01242052       2.54805185      21.44061086        1       0.00312570      -0.00863317       0.01217801
Al       9.79608726       2.62788745      21.89130252        1      -0.00208187      -0.00053949       0.01686587
Al       2.82626144       4.93848422      21.59826616        1      -0.00140547       0.00239518       0.00067977
Al       5.68750362       4.97207186      21.50601135        1      -0.00289052       0.00142099      -0.00574639
Al       8.49668581       5.03913333      21.43193564        1       0.00078300       0.00409003       0.00725375
Al      11.37279343       5.01198008      21.52613586        1      -0.00297799      -0.00169374       0.00195221
Al       4.20841097       7.41201958      21.63626974        1      -0.00047932       0.00082013       0.00287767
Al       7.08591513       7.42986935      21.60385671        1      -0.00174868      -0.00043868       0.00417848
Al       9.99322717       7.44332907      21.61596853        1      -0.01354656      -0.00007848       0.00448378
Al      12.81617180       7.38332866      22.14418960        1      -0.00325829       0.00136472      -0.02181231
C        6.00701797       3.88999452      24.71201061        0      -0.03434834      -0.01261905      -0.00093394
N        7.00473949       3.06276264      24.41361505        0      -0.00888909      -0.03294485       0.00337227
C        8.16209661       3.71927080      24.66473792        0       0.05582755      -0.01171582      -0.00935764
S        9.72099509       3.12527152      24.32412891        0      -0.02847454       0.01726619       0.00185141
N        7.88172532       4.96262174      25.24425579        0       0.02951894      -0.02551658       0.01127808
N        6.46156592       5.06955350      25.27029802        0       0.01796303       0.00074486      -0.00247084
H        4.95688335       3.65861040      24.56789451        0      -0.04635689       0.03121352      -0.00059399
H        8.37555351       5.78318182      24.88214212        0       0.02063721      -0.00533327       0.01675594
H        6.10620311       5.94979322      24.88209956        0      -0.01310169      -0.00152806      -0.01268735
