105
Lattice="11.45512985522207 0.0 0.0 5.727564927611035 9.92043345827187 0.0 0.0 0.0 31.691342951089922" Properties=species:S:1:pos:R:3:tags:I:1:forces:R:3 energy=-423.75738525390625 free_energy=-423.75738525390625 stress="0.006489678286015987 1.4575198292732239e-06 -4.754401743412018e-07 1.4575198292732239e-06 0.006532546132802963 2.60770320892334e-06 -4.754401743412018e-07 2.60770320892334e-06 0.006779937073588371" pbc="T T F"
Al       1.43138262       0.82799362       9.99455837        6      -0.00158543       0.00165129       0.00175748
Al       4.29516355       0.82800647       9.99455345        6      -0.00158733       0.00165591       0.00174153
Al       7.15894307       0.82799872       9.99455597        6      -0.00158800       0.00165811       0.00176555
Al      10.02272655       0.82799909       9.99456100        6      -0.00158155       0.00165237       0.00179640
Al       2.86327184       3.30810869       9.99453352        6      -0.00159232       0.00165554       0.00175399
Al       5.72705206       3.30810677       9.99454121        6      -0.00158367       0.00165327       0.00173352
Al       8.59083269       3.30810854       9.99454443        6      -0.00159161       0.00165107       0.00174302
Al      11.45460750       3.30810649       9.99455101        6      -0.00159306       0.00165263       0.00178630
Al       4.29515923       5.78822370       9.99454952        6      -0.00159135       0.00165595       0.00175996
Al       7.15894904       5.78821940       9.99455638        6      -0.00158237       0.00165304       0.00175772
Al      10.02272190       5.78822127       9.99455692        6      -0.00158874       0.00165420       0.00177279
Al      12.88649155       5.78822069       9.99456852        6      -0.00159765       0.00165584       0.00179454
Al       5.72704353       8.26833431       9.99455583        6      -0.00159090       0.00165617       0.00176050
Al       8.59083460       8.26833173       9.99455577        6      -0.00158498       0.00165189       0.00173562
Al      11.45461294       8.26832798       9.99455164        6      -0.00158692       0.00165547       0.00176734
Al      14.31838738       8.26833680       9.99457122        6      -0.00159675       0.00165625       0.00178407
Al       0.00254321       1.65565928      12.39162888        5       0.00043110       0.00117709      -0.01065959
Al       2.86623707       1.65573844      12.39129273        5       0.00051528       0.00104808      -0.00866993
Al       5.73009733       1.65555791      12.39127317        5       0.00046941       0.00117657      -0.00857342
Al       8.59392298       1.65560412      12.39136404        5       0.00047541       0.00115399      -0.01004926
Al       1.43440406       4.13575834      12.39146892        5       0.00053213       0.00108591      -0.01018118
Al       4.29833330       4.13584217      12.39118313        5       0.00049706       0.00108378      -0.00815864
Al       7.16203616       4.13580541      12.39094380        5       0.00043423       0.00109451      -0.00821964
Al      10.02566520       4.13571836      12.39129482        5       0.00046486       0.00108278      -0.01017410
Al       2.86624302       6.61587159      12.39156952        5       0.00054491       0.00104014      -0.01111326
Al       5.73017982       6.61593540      12.39139545        5       0.00048566       0.00106396      -0.00910131
Al       8.59402598       6.61597696      12.39131985        5       0.00039644       0.00104510      -0.00947629
Al      11.45752664       6.61590221      12.39144358        5       0.00060163       0.00101365      -0.01116371
Al       4.29807011       9.09585531      12.39153910        5       0.00051320       0.00102963      -0.01147069
Al       7.16196153       9.09582026      12.39125039        5       0.00068089       0.00105307      -0.00996609
Al      10.02600056       9.09578004      12.39139111        5       0.00040885       0.00132198      -0.00945420
Al      12.88953562       9.09595604      12.39141876        5       0.00049591       0.00114497      -0.01092742
Al      -0.00032683       0.00134104      14.67422095        4       0.00012579       0.00160613       0.00932597
Al       2.86345023       0.00133519      14.67420541        4      -0.00012355       0.00169351       0.00866643
Al       5.72723268       0.00133653      14.67422199        4       0.00003699       0.00156845       0.00926476
Al       8.59100833       0.00133120      14.67425302        4       0.00003892       0.00149075       0.00968761
Al       1.43154592       2.48144788      14.67416092        4      -0.00015396       0.00166296       0.00857968
Al       4.29532757       2.48144527      14.67411369        4      -0.00027053       0.00172813       0.00763076
Al       7.15913430       2.48143817      14.67410773        4      -0.00005573       0.00166791       0.00752049
Al      10.02291808       2.48144006      14.67415566        4       0.00012933       0.00159416       0.00831247
Al       2.86344359       4.96155658      14.67416122        4      -0.00012430       0.00174725       0.00853263
Al       5.72724082       4.96157299      14.67406229        4      -0.00011316       0.00189746       0.00739286
Al       8.59102943       4.96156311      14.67411144        4      -0.00003758       0.00183970       0.00763944
Al      11.45479345       4.96155526      14.67420214        4      -0.00011528       0.00165580       0.00864810
Al       4.29534029       7.44166423      14.67417573        4      -0.00004056       0.00162658       0.00917158
Al       7.15912192       7.44167901      14.67413582        4      -0.00012825       0.00180643       0.00839596
Al      10.02289846       7.44166715      14.67419623        4      -0.00008487       0.00164991       0.00904627
Al      12.88668752       7.44165594      14.67424370        4       0.00003997       0.00158682       0.00994464
Al       1.43154145       0.82807294      17.01239694        3      -0.00128287       0.00193015       0.00448335
Al       4.29532333       0.82808277      17.01242742        3      -0.00134984       0.00168259       0.00435141
Al       7.15908710       0.82807843      17.01242330        3      -0.00124959       0.00182565       0.00442626
Al      10.02287864       0.82807584      17.01238575        3      -0.00127687       0.00187522       0.00447375
Al       2.86345004       3.30819161      17.01238636        3      -0.00152051       0.00163512       0.00430762
Al       5.72720611       3.30818206      17.01236461        3      -0.00126726       0.00143992       0.00373698
Al       8.59097728       3.30817431      17.01238861        3      -0.00089397       0.00165915       0.00425767
Al      11.45475435       3.30819613      17.01235601        3      -0.00126781       0.00186393       0.00448735
Al       4.29532273       5.78828254      17.01239257        3      -0.00128164       0.00188465       0.00433440
Al       7.15909223       5.78827683      17.01236866        3      -0.00117849       0.00186735       0.00391776
Al      10.02286237       5.78828978      17.01236130        3      -0.00124255       0.00180229       0.00442937
Al      12.88666765       5.78829475      17.01239233        3      -0.00127754       0.00193700       0.00447914
Al       5.72721136       8.26837640      17.01240577        3      -0.00127773       0.00193600       0.00445186
Al       8.59097354       8.26839247      17.01243299        3      -0.00126815       0.00192739       0.00443632
Al      11.45475408       8.26840364      17.01241407        3      -0.00126625       0.00192996       0.00448383
Al      14.31855186       8.26839323      17.01240608        3      -0.00125630       0.00197211       0.00448620
Al      -0.00078199       1.65776998      19.32600898        2      -0.00328449       0.00416613      -0.01195062
Al       2.86655920       1.65825032      19.32397651        2      -0.00093235       0.00389748      -0.01582851
Al       5.72930159       1.66103377      19.32241070        2       0.00064139       0.00346025      -0.01962319
Al       8.59157631       1.66306984      19.32202237        2       0.00036320       0.00574352      -0.01509835
Al       1.43224580       4.12975111      19.32319614        2      -0.00164904      -0.00191409      -0.01497845
Al       4.29756509       4.13309109      19.33108189        2      -0.00747354      -0.00468180      -0.03333668
Al       7.16181046       4.13415591      19.32947119        2       0.00971719      -0.01235819      -0.04301890
Al      10.02111593       4.13215686      19.33455421        2       0.00279650      -0.00588233      -0.00775179
Al       2.86718915       6.61116275      19.33717948        2       0.00034968       0.00090696      -0.00752187
Al       5.73031678       6.61062846      19.33286422        2       0.00082969       0.01145038      -0.02721851
Al       8.58951413       6.61036872      19.32972169        2       0.00076593       0.00288179      -0.02154855
Al      11.45300743       6.60946618      19.32928792        2      -0.00093630      -0.00052361      -0.01205416
Al       4.30062366       9.09667483      19.32985600        2       0.00176094       0.00357685      -0.01159224
Al       7.15994789       9.09455281      19.34287308        2      -0.00004112       0.00254673      -0.00591925
Al      10.01922469       9.09691758      19.32914132        2      -0.00406914       0.00388198      -0.01281592
Al      12.88746726       9.09539597      19.34391486        2      -0.00058590       0.00187354      -0.00183318
Al      -0.00187881      -0.00241764      21.68650964        1      -0.00402882      -0.00086287       0.00469099
Al       2.86460528      -0.00318866      21.68594147        1      -0.00048704      -0.00231834       0.00534128
Al       5.72579260       0.01054925      21.68038330        1      -0.00417580       0.00346245      -0.00693099
Al       8.58502993       0.01144808      21.68235054        1      -0.00414263       0.00667880      -0.00144883
Al       1.43333524       2.49862825      21.68607593        1      -0.00303403       0.00702574       0.00398228
Al       4.30787601       2.48144445      21.63169420        1       0.00796417      -0.00024960      -0.02037589
Al       7.15544843       2.47341694      21.64579659        1      -0.01014958       0.00711846      -0.02084165
Al      10.00577763       2.50052846      21.71725707        1      -0.01876023       0.01884407       0.04085601
Al       2.88083913       4.95842985      21.67451237        1       0.00465957       0.00291055      -0.00549539
Al       5.72827418       4.95377882      21.52885018        1       0.01765120      -0.00965908       0.02137355
Al       8.59577590       4.96568506      21.58020658        1      -0.01235068      -0.00153324       0.02279429
Al      11.44845234       4.96584059      21.67347261        1       0.00304599       0.00890636      -0.00877802
Al       4.30893706       7.42539217      21.69030314        1       0.00143823      -0.00126839       0.00938863
Al       7.16206232       7.42900553      21.64847872        1      -0.00122142      -0.00860075       0.01778026
Al      10.00711091       7.42114718      21.67735719        1       0.00138229       0.00417477      -0.00580820
Al      12.88811442       7.43732528      21.68977602        1       0.00054718      -0.00194393       0.00783478
C        5.84457489       3.83261869      24.76636885        0       0.10339102       0.01460274      -0.12495282
N        6.98897843       3.12984272      24.74847578        0      -0.37491375      -0.07541613       0.12410343
C        8.02078300       4.03142377      24.79157684        0      -0.01106809       0.26455516      -0.12769911
S        9.66806632       3.78636086      24.55572629        0      -0.03832211      -0.11063527      -0.09435058
N        7.46474829       5.29533286      24.88258683        0      -0.44285828      -0.05047671       0.22461560
N        6.09790282       5.16530410      24.75278998        0       0.04086453      -0.15705734       0.21805683
H        4.83051845       3.42549547      24.67532198        0       0.31435996       0.06753962       0.04137855
H        7.87360336       6.17530990      24.60022494        0       0.27533999       0.13984676      -0.16553773
H        5.46692445       5.95849318      24.60727951        0       0.19512524      -0.24473970       0.02395819
