105
Lattice="11.45512985522207 0.0 0.0 5.727564927611035 9.92043345827187 0.0 0.0 0.0 31.691342951089922" Properties=species:S:1:pos:R:3:tags:I:1:forces:R:3 energy=-424.2936096191406 free_energy=-424.2936096191406 stress="0.005655323620885611 1.4649704098701477e-06 -2.4028122425079346e-07 1.4649704098701477e-06 0.005712081212550402 9.55536961555481e-07 -2.4028122425079346e-07 9.55536961555481e-07 0.005772346630692482" pbc="T T F"
Al       1.41766417       0.89207597      10.00264352        6       0.00012126       0.00007908      -0.00016160
Al       4.28315830       0.89095329      10.01268625        6       0.00023522       0.00001070      -0.00009635
Al       7.14536541       0.89046644      10.01719374        6       0.00031254       0.00004721       0.00025010
Al      10.00903429       0.89091329      10.01019584        6       0.00020682       0.00007956       0.00012648
Al       2.84841227       3.37366389      10.01488101        6       0.00018364       0.00004938      -0.00007194
Al       5.71118195       3.37272612      10.01534827        6       0.00028910       0.00002977       0.00012631
Al       8.57607253       3.37177548      10.01367764        6       0.00028377       0.00003972       0.00003609
Al      11.44070207       3.37394910      10.01269323        6       0.00017764       0.00003846      -0.00013020
Al       4.28029499       5.85121147      10.02189603        6       0.00024323       0.00015126       0.00031953
Al       7.14476793       5.84980933      10.01643807        6       0.00031776       0.00015301       0.00023373
Al      10.01054314       5.85147142      10.02105218        6       0.00033770       0.00012707       0.00030693
Al      12.87339696       5.85236301      10.02902392        6       0.00024543       0.00017332       0.00030392
Al       5.71307388       8.32954373      10.01206124        6       0.00019546       0.00014641       0.00016058
Al       8.57890659       8.32926774      10.01260173        6       0.00027975       0.00014373       0.00012515
Al      11.44325857       8.32952871      10.02587944        6       0.00029976       0.00006950       0.00040339
Al      14.30516366       8.33003679      10.02465938        6       0.00025966       0.00010185       0.00033775
Al       0.01419229       1.69405639      12.38899789        5       0.00072455      -0.00051102       0.00252706
Al       2.87416079       1.69520997      12.39100296        5       0.00139506      -0.00024565       0.00086841
Al       5.74225887       1.69399404      12.39796523        5      -0.00170726      -0.00097184      -0.00083233
Al       8.60919344       1.69244172      12.39671727        5      -0.00160642      -0.00092112       0.00263809
Al       1.44488584       4.17344886      12.39966886        5       0.00130447       0.00131013       0.00511939
Al       4.30805529       4.17645406      12.40228778        5      -0.00032026      -0.00029719      -0.00011379
Al       7.17832857       4.17317817      12.39022305        5      -0.00181075       0.00095686       0.00708100
Al      10.04133025       4.17255730      12.39576375        5       0.00017298       0.00211912       0.00451169
Al       2.87709759       6.65773876      12.41732392        5      -0.00024025      -0.00101164       0.00029644
Al       5.74107238       6.65785492      12.40277671        5      -0.00061517      -0.00063287       0.00014371
Al       8.60794955       6.65732947      12.40172975        5       0.00057608       0.00081514      -0.00092831
Al      11.47309563       6.65658136      12.41893413        5      -0.00017183       0.00050423      -0.00107187
Al       4.30889044       9.13503403      12.40413356        5      -0.00032104      -0.00049663       0.00051843
Al       7.16990872       9.13622595      12.39142214        5       0.00112257      -0.00039982      -0.00181962
Al      10.03561214       9.13422388      12.40191636        5       0.00076643       0.00034355      -0.00083945
Al      12.90403355       9.13324040      12.41333381        5      -0.00134680       0.00029179      -0.00072617
Al       0.01359864       0.03208993      14.68474595        4       0.00015077       0.00032137       0.00226930
Al       2.86555032       0.03177454      14.68096095        4       0.00045959       0.00011325       0.00149482
Al       5.73466817       0.02449874      14.69498675        4       0.00046302       0.00022091       0.00161563
Al       8.60180771       0.02701721      14.70938386        4       0.00092552       0.00042710       0.00131009
Al       1.44066895       2.50834885      14.68962096        4       0.00024006      -0.00012275       0.00109084
Al       4.29649572       2.50395247      14.68601112        4       0.00008068      -0.00017600      -0.00118248
Al       7.17073468       2.50111111      14.68673698        4       0.00001211      -0.00000630      -0.00245903
Al      10.04550976       2.50662384      14.68511418        4      -0.00068989      -0.00053095       0.00032778
Al       2.87007491       4.99270518      14.70810060        4       0.00028523      -0.00081652      -0.00041975
Al       5.73957412       4.99415442      14.68472497        4      -0.00065594      -0.00105762      -0.00092835
Al       8.61486507       4.99833793      14.68547385        4      -0.00074240      -0.00136610      -0.00033751
Al      11.47454747       4.99284086      14.70643787        4      -0.00026879      -0.00020652       0.00009728
Al       4.30457362       7.47421912      14.71059218        4       0.00067677       0.00043906       0.00126388
Al       7.17692262       7.48162701      14.68693692        4      -0.00059244       0.00011217       0.00075324
Al      10.04352924       7.47486967      14.71093374        4      -0.00043977       0.00032037      -0.00029238
Al      12.90427909       7.47794614      14.73176188        4      -0.00033762      -0.00047211      -0.00023568
Al       1.39975117       0.83973925      17.02814726        3       0.00044323      -0.00013233       0.00168278
Al       4.24919073       0.81798653      16.98615751        3       0.00023164       0.00022844       0.00186594
Al       7.14147671       0.81692582      17.00856203        3       0.00037839       0.00060642       0.00105848
Al      10.02381489       0.84129512      17.02469342        3      -0.00038309      -0.00189966       0.00058422
Al       2.82600787       3.29149856      17.00304094        3       0.00054605      -0.00003525      -0.00025841
Al       5.69016154       3.28617581      16.96506375        3       0.00093234       0.00472633      -0.00066528
Al       8.58391721       3.29927409      16.96423543        3      -0.00075760       0.00307202      -0.00166758
Al      11.44360588       3.29980051      17.00392608        3      -0.00072414       0.00060634       0.00102047
Al       4.26939749       5.80009761      17.00259717        3       0.00019859      -0.00012376      -0.00059591
Al       7.14117874       5.82068534      16.95947442        3       0.00019370      -0.00171166       0.00193831
Al      10.02318463       5.81535922      17.00381881        3      -0.00132757      -0.00315363       0.00047319
Al      12.86800094       5.79441001      17.03258856        3       0.00083996       0.00198493       0.00030811
Al       5.71624225       8.30822788      17.01322238        3      -0.00021998       0.00003495       0.00098780
Al       8.56989400       8.29878010      17.00742462        3      -0.00112746       0.00106209      -0.00158039
Al      11.43407010       8.28424709      17.03955701        3       0.00098548      -0.00120713      -0.00025515
Al      14.31173131       8.28857453      17.04975346        3      -0.00118984      -0.00343469      -0.00225590
Al      -0.05767603       1.66562525      19.41050391        2      -0.00152291      -0.00022974       0.00260900
Al       2.75711949       1.62476512      19.35764931        2       0.00404997      -0.00058167       0.00666742
Al       5.61680047       1.62246980      19.22727550        2       0.00058007       0.00190056       0.00128224
Al       8.57572645       1.68432977      19.25501008        2      -0.00124328       0.00001390       0.00005912
Al       1.36441192       4.10983606      19.27499854        2      -0.00032193      -0.00005008       0.00420099
Al       4.22237507       4.11515473      19.22864522        2      -0.00086589      -0.00242044      -0.00104825
Al       7.11080594       4.14565956      19.17203984        2      -0.00049365      -0.00200874      -0.00011916
Al       9.97121534       4.12341715      19.23525969        2       0.00038458      -0.00003645       0.00160961
Al       2.81608619       6.61889639      19.32853406        2      -0.00058804      -0.00200136      -0.00266470
Al       5.69610386       6.66086311      19.22901497        2      -0.00089548      -0.00109884       0.00235443
Al       8.54911658       6.66108938      19.23421775        2      -0.00099889       0.00139215      -0.00073349
Al      11.41824915       6.63790078      19.34976140        2       0.00144913       0.00077206      -0.00490373
Al       4.25319328       9.11858023      19.35820173        2      -0.00140303      -0.00118898      -0.00647273
Al       7.11136106       9.12412560      19.36116706        2      -0.00006182      -0.00012551       0.00382929
Al       9.94828175       9.09836157      19.32937958        2       0.00111516       0.00058435       0.00371177
Al      12.82629088       9.09732145      19.33358209        2      -0.00189776      -0.00289926      -0.00077068
Al      -0.32653324      -0.11286224      21.96955887        1       0.00069511       0.00016527      -0.00209059
Al       2.72557839      -0.05081644      22.19796696        1       0.00082028       0.00278389      -0.00783449
Al       5.58943426       0.05989455      21.67014194        1       0.00043600       0.00228744      -0.00352094
Al       8.37110987       0.07215190      21.62787892        1       0.00374350      -0.00241087      -0.00312088
Al       1.21581810       2.59737152      21.90726053        1       0.00007267      -0.00041580       0.00162666
Al       4.15855901       2.47721027      21.59264980        1       0.00116863       0.00178191      -0.00757721
Al       6.98653204       2.53121891      21.43264889        1       0.00034828      -0.00378360       0.00152016
Al       9.78291907       2.56429693      21.92246737        1      -0.00147670      -0.00167514      -0.00607373
Al       2.76732377       4.94910784      21.64623574        1      -0.00190462      -0.00201914      -0.00200464
Al       5.63981924       4.96548025      21.42205015        1      -0.00125960      -0.00139476       0.00247625
Al       8.45394150       5.00727172      21.41892512        1       0.00100675      -0.00125386       0.00145941
Al      11.26975316       4.99117430      21.59704728        1      -0.00069261      -0.00156417      -0.00270338
Al       4.13591415       7.36513714      21.69718446        1       0.00102669      -0.00001289       0.00214716
Al       7.04216394       7.43802114      21.64932925        1      -0.00171859      -0.00060165       0.00026963
Al       9.88545773       7.44801484      21.67831978        1      -0.00194069      -0.00220803      -0.00503494
Al      12.70108997       7.39239490      22.07857394        1       0.00108654       0.00139286      -0.00130385
C        6.08885914       3.96825960      24.54504320        0       0.01467407       0.00475842      -0.00108999
N        6.93500636       2.94485217      24.43258499        0      -0.00008754       0.02153312       0.00884072
C        8.18899117       3.45675377      24.57123801        0      -0.01337381       0.00239030      -0.00902462
S        9.66506729       2.63216504      24.33340461        0      -0.00146284      -0.00267012       0.00278186
N        8.10653677       4.82236529      24.72329355        0       0.01771725       0.01054729       0.00965336
N        6.73783055       5.15882966      24.83941259        0       0.00790967      -0.00535857       0.00098141
H        5.01600341       3.92493309      24.37590123        0      -0.00423365       0.00094050       0.00423766
H        8.80154859       5.38631715      25.20932450        0      -0.02196134      -0.01740896      -0.02395949
H        6.46653271       5.97834793      24.27086191        0       0.00162342       0.00205782       0.00308464
