105
Lattice="11.45512985522207 0.0 0.0 5.727564927611035 9.92043345827187 0.0 0.0 0.0 31.691342951089922" Properties=species:S:1:pos:R:3:tags:I:1:forces:R:3 energy=-424.6576232910156 free_energy=-424.6576232910156 stress="0.006683059968054295 1.2526288628578186e-06 -2.086162567138672e-07 1.2526288628578186e-06 0.006730332039296627 1.6712583601474762e-06 -2.086162567138672e-07 1.6712583601474762e-06 0.006869174540042877" pbc="T T F"
Al       1.40296393       0.89443346       9.94663852        6       0.00059600       0.00065315       0.00126331
Al       4.26686333       0.89152828       9.95973101        6       0.00048301       0.00068013       0.00081782
Al       7.12996794       0.89147015       9.96506905        6       0.00062857       0.00059225       0.00075922
Al       9.99273540       0.89421318       9.95822713        6       0.00076336       0.00059360       0.00106034
Al       2.83142068       3.37828300       9.95680491        6       0.00060036       0.00049127       0.00098982
Al       5.69588671       3.37397585       9.95732535        6       0.00045286       0.00064670       0.00059479
Al       8.56024507       3.37417400       9.95733194        6       0.00070306       0.00061745       0.00069915
Al      11.42532880       3.37766056       9.95548342        6       0.00072464       0.00053569       0.00094247
Al       4.26372090       5.85852718       9.96824095        6       0.00060904       0.00065590       0.00095380
Al       7.13049101       5.85597566       9.96462116        6       0.00051599       0.00070092       0.00073325
Al       9.99564951       5.85596843       9.96833449        6       0.00066591       0.00070152       0.00081016
Al      12.85843336       5.85936883       9.97867943        6       0.00063785       0.00054593       0.00090424
Al       5.69803110       8.33683373       9.96023323        6       0.00063144       0.00061800       0.00144436
Al       8.56412224       8.33499999       9.96249691        6       0.00058113       0.00065833       0.00109036
Al      11.42855943       8.33498698       9.97754676        6       0.00061735       0.00055178       0.00093461
Al      14.28927184       8.33799833       9.97598808        6       0.00075233       0.00042769       0.00109999
Al       0.01220061       1.69757587      12.35259787        5       0.00121762       0.00133726      -0.00404535
Al       2.87370357       1.69688482      12.34470434        5      -0.00021996       0.00250384       0.00255191
Al       5.73791049       1.69670847      12.34957377        5      -0.00021086       0.00204302      -0.00244485
Al       8.60616584       1.69620812      12.35891419        5      -0.00023035       0.00161831      -0.00834752
Al       1.44612062       4.18178128      12.36289649        5       0.00024388       0.00005538      -0.00555276
Al       4.30642002       4.18280614      12.35387386        5       0.00011927       0.00018562      -0.00472179
Al       7.17363142       4.18245705      12.34964603        5      -0.00049043      -0.00010289      -0.00629903
Al      10.04129583       4.18229404      12.35557844        5      -0.00048234      -0.00019121      -0.00620840
Al       2.87963856       6.66615261      12.37684687        5       0.00005931      -0.00072171      -0.00550387
Al       5.74050721       6.67069685      12.36378887        5       0.00027764      -0.00122416      -0.00630492
Al       8.60654305       6.66861822      12.35876258        5      -0.00144184      -0.00068989      -0.00431465
Al      11.47088892       6.66577108      12.37502639        5      -0.00020915      -0.00066507      -0.00410222
Al       4.30815960       9.14348572      12.37376137        5       0.00168649       0.00059319      -0.00477528
Al       7.17126501       9.14644265      12.35589582        5      -0.00001209       0.00010896       0.00275527
Al      10.03269772       9.14387808      12.35980966        5       0.00070459       0.00025445       0.00491432
Al      12.90011008       9.14277898      12.37532587        5       0.00096187      -0.00026682      -0.00160152
Al       0.02691214       0.04287683      14.67222342        4      -0.00047697       0.00017634       0.00188813
Al       2.87687513       0.04366349      14.67153075        4       0.00013686      -0.00063094      -0.00057517
Al       5.74010363       0.03365183      14.66552721        4       0.00061914       0.00080865       0.00221413
Al       8.61401082       0.03319873      14.68058211        4       0.00066960       0.00093476       0.00208170
Al       1.44688237       2.50614927      14.64673374        4       0.00072259       0.00144835       0.00292995
Al       4.30517599       2.50749992      14.63247225        4       0.00072166       0.00116498       0.00314532
Al       7.17306633       2.50362617      14.63219333        4       0.00073772       0.00105203       0.00247317
Al      10.04611794       2.51427928      14.64348336        4       0.00023158       0.00015331       0.00229495
Al       2.88192299       4.99596372      14.66014054        4       0.00052449       0.00016449       0.00223505
Al       5.74379140       4.99877109      14.63185261        4       0.00060487       0.00055406       0.00251458
Al       8.61465702       4.99838591      14.63273235        4       0.00020896       0.00063149       0.00231858
Al      11.47804525       4.99444229      14.66090242        4       0.00045376       0.00071594       0.00221802
Al       4.31741412       7.48466144      14.67963143        4       0.00095121       0.00045441       0.00168785
Al       7.18270141       7.49048811      14.65459693        4      -0.00010090       0.00030408       0.00210190
Al      10.03825818       7.48140978      14.66760794        4       0.00051964       0.00037463       0.00171684
Al      12.90856191       7.47727552      14.68125066        4       0.00056842       0.00078082       0.00210207
Al       1.40980693       0.84877789      17.01063057        3       0.00072583      -0.00002363       0.00325701
Al       4.26034060       0.83393889      16.97806617        3       0.00080498       0.00054880       0.00242881
Al       7.15033579       0.82592861      16.97184001        3       0.00059738       0.00087778       0.00249561
Al      10.03476099       0.84485279      17.00558587        3      -0.00003911       0.00047327       0.00221891
Al       2.84165006       3.29144609      16.96842107        3      -0.00020315       0.00160669       0.00239937
Al       5.70935535       3.30949074      16.92874645        3       0.00031565       0.00034351       0.00264750
Al       8.58200598       3.31959683      16.92574298        3      -0.00001127      -0.00252136       0.00337238
Al      11.43469568       3.30344971      16.97483378        3       0.00153098       0.00090960       0.00211865
Al       4.29022271       5.79244645      16.96813101        3      -0.00128257       0.00295598       0.00176924
Al       7.15043520       5.81441366      16.93629577        3      -0.00075054       0.00130938       0.00181889
Al      10.00997489       5.79165627      16.96905268        3       0.00620380       0.00909649      -0.00058117
Al      12.87745408       5.79802461      16.98531393        3       0.00060453       0.00082840       0.00238689
Al       5.73191626       8.30290974      17.00308661        3       0.00043818       0.00162014       0.00204885
Al       8.57389701       8.29493666      16.98891042        3       0.00104814       0.00249550       0.00184939
Al      11.43863312       8.27528142      16.97338383        3       0.00205385       0.00506302       0.01113936
Al      14.33536433       8.28204809      17.00196475        3      -0.00536664       0.00136152       0.00327467
Al      -0.06438272       1.68047059      19.41584363        2       0.00002178       0.00017835      -0.00550536
Al       2.76569098       1.64630893      19.35592946        2       0.00034714      -0.00299638      -0.00434765
Al       5.63306816       1.64028092      19.24342213        2       0.00109118       0.00469641      -0.00301786
Al       8.55832076       1.69848428      19.24615011        2      -0.00032914       0.00016382       0.00091484
Al       1.35389457       4.12309884      19.25382863        2      -0.00101046       0.00086779      -0.00460595
Al       4.23149493       4.13718723      19.22138766        2      -0.00076992      -0.00163441      -0.00117816
Al       7.11970258       4.15070431      19.17438686        2      -0.00317471       0.00299343       0.00569633
Al       9.95149011       4.13654555      19.23054947        2      -0.00025573      -0.00123631      -0.00486455
Al       2.81552627       6.63017822      19.29731202        2      -0.00192551       0.00097456      -0.00158237
Al       5.68767647       6.66401893      19.24438936        2      -0.00031938       0.00101790      -0.00583937
Al       8.53529977       6.65639180      19.23124685        2       0.00093496      -0.00202037       0.00079200
Al      11.41401019       6.65505167      19.28868273        2       0.00029926      -0.00245085       0.00160715
Al       4.24628388       9.13571008      19.34234156        2      -0.00071502      -0.00145897      -0.00585740
Al       7.12308673       9.13790548      19.38033100        2      -0.00061120       0.00198422      -0.00385206
Al       9.95898674       9.11417038      19.32147019        2       0.00098710       0.00310530      -0.00122012
Al      12.82665641       9.10391879      19.29720017        2      -0.00262091      -0.00270988      -0.00286440
Al      -0.32065277      -0.04182119      21.95887374        1       0.00278801       0.00627302      -0.00414079
Al       2.70915050      -0.02747019      22.17538856        1      -0.00042465       0.00654006      -0.00264282
Al       5.58110330       0.11427549      21.70478846        1      -0.00027511       0.00272982       0.00258946
Al       8.35997673       0.10518463      21.58072465        1       0.00667137      -0.01103237       0.00920830
Al       1.22709220       2.62089796      21.88913499        1      -0.00149398       0.00007185       0.00314417
Al       4.14825248       2.52064866      21.56767894        1       0.00087795       0.00066146       0.00871659
Al       7.00220312       2.55370079      21.48128487        1      -0.00693371      -0.00001506      -0.00191757
Al       9.76397341       2.57995347      21.90737813        1      -0.00394777       0.00853721       0.01227531
Al       2.73179670       4.99485465      21.62283236        1       0.00073004       0.00057194       0.00255158
Al       5.62820006       4.99469644      21.46863073        1      -0.00428443      -0.00141667       0.01323837
Al       8.40466624       5.04254598      21.51809612        1       0.00367890      -0.00238277      -0.00476093
Al      11.23585557       4.99818960      21.55662167        1      -0.00217347       0.00187313       0.00605668
Al       4.13378498       7.42131966      21.68365380        1      -0.00004164      -0.00248767       0.00216410
Al       6.97140942       7.48112725      21.66754799        1       0.00256393      -0.00365276       0.00379014
Al       9.82380693       7.45689717      21.61644822        1      -0.00037323      -0.00463645      -0.00031901
Al      12.67994555       7.42770585      22.03903617        1       0.00174887       0.00241251       0.01343143
C        6.12144376       3.86990740      24.72671241        0      -0.01014835       0.00672233      -0.00808058
N        6.97905865       2.90345123      24.41533482        0       0.02792839       0.03282792       0.01168831
C        8.22320904       3.34987294      24.77262508        0      -0.02295444      -0.01670815      -0.03602023
S        9.72094160       2.63948777      24.35680522        0      -0.03659585       0.01156463       0.01804580
N        8.09086843       4.55014455      25.40567908        0       0.08848152       0.12113948      -0.01817870
N        6.74548574       4.94391368      25.35091209        0       0.02444071       0.00053386      -0.00087165
H        5.06392470       3.88840287      24.47283559        0       0.02408684      -0.01192234       0.00332764
H        8.81934570       5.19354826      25.70670481        0      -0.11366341      -0.12589355      -0.02939062
H        6.61684503       5.87843789      24.93306742        0       0.00166841      -0.07432634      -0.00726493
