105
Lattice="11.45512985522207 0.0 0.0 5.727564927611035 9.92043345827187 0.0 0.0 0.0 31.691342951089922" Properties=species:S:1:pos:R:3:tags:I:1:forces:R:3 energy=-422.86328125 free_energy=-422.86328125 stress="0.005095377564430237 -2.394896000623703e-06 -1.5832483768463135e-08 -2.394896000623703e-06 0.005270412191748619 8.102040737867355e-06 -1.5832483768463135e-08 8.102040737867355e-06 0.006453297100961208" pbc="T T F"
Al       1.43189123       0.82670279      10.00000000        6      -0.00014483       0.00061920      -0.00834914
Al       4.29567370       0.82670279      10.00000000        6      -0.00022327       0.00078249      -0.00840192
Al       7.15945616       0.82670279      10.00000000        6      -0.00019264       0.00045914      -0.00861409
Al      10.02323862       0.82670279      10.00000000        6      -0.00018668       0.00061376      -0.00858994
Al       2.86378246       3.30681115      10.00000000        6      -0.00006587       0.00055480      -0.00874787
Al       5.72756493       3.30681115      10.00000000        6      -0.00051335       0.00052406      -0.00873595
Al       8.59134739       3.30681115      10.00000000        6      -0.00005953       0.00061089      -0.00857761
Al      11.45512986       3.30681115      10.00000000        6      -0.00012489       0.00044401      -0.00862820
Al       4.29567370       5.78691952      10.00000000        6      -0.00032042       0.00067558      -0.00886891
Al       7.15945616       5.78691952      10.00000000        6      -0.00029829       0.00077593      -0.00880696
Al      10.02323862       5.78691952      10.00000000        6      -0.00022681       0.00080586      -0.00877344
Al      12.88702109       5.78691952      10.00000000        6      -0.00031919       0.00048012      -0.00877973
Al       5.72756493       8.26702788      10.00000000        6      -0.00037435       0.00068475      -0.00860859
Al       8.59134739       8.26702788      10.00000000        6      -0.00007917       0.00058178      -0.00851802
Al      11.45512986       8.26702788      10.00000000        6      -0.00035307       0.00070569      -0.00862002
Al      14.31891232       8.26702788      10.00000000        6      -0.00009832       0.00072261      -0.00858508
Al      -0.00000000       1.65340558      12.33826859        5       0.00292235       0.00173812       0.06579887
Al       2.86378246       1.65340558      12.33826859        5       0.00365349       0.00203117       0.06637269
Al       5.72756493       1.65340558      12.33826859        5       0.00183547       0.00223676       0.06660291
Al       8.59134739       1.65340558      12.33826859        5       0.00260246       0.00147872       0.06695722
Al       1.43189123       4.13351394      12.33826859        5       0.00323351       0.00121876       0.06595762
Al       4.29567370       4.13351394      12.33826859        5       0.00222538       0.00221832       0.06726347
Al       7.15945616       4.13351394      12.33826859        5       0.00254791       0.00215493       0.06712242
Al      10.02323862       4.13351394      12.33826859        5       0.00255875       0.00240498       0.06721689
Al       2.86378246       6.61362231      12.33826859        5       0.00321026       0.00051601       0.06737106
Al       5.72756493       6.61362231      12.33826859        5       0.00237157       0.00092600       0.06729183
Al       8.59134739       6.61362231      12.33826859        5       0.00307558       0.00096886       0.06747293
Al      11.45512986       6.61362231      12.33826859        5       0.00238480       0.00139144       0.06774937
Al       4.29567370       9.09373067      12.33826859        5       0.00272305       0.00092067       0.06701376
Al       7.15945616       9.09373067      12.33826859        5       0.00287580       0.00064118       0.06689894
Al      10.02323862       9.09373067      12.33826859        5       0.00234861       0.00139003       0.06687848
Al      12.88702109       9.09373067      12.33826859        5       0.00266250       0.00049000       0.06630103
Al       0.00000000       0.00000000      14.67653718        4       0.00002566       0.00077128      -0.00446552
Al       2.86378246       0.00000000      14.67653718        4       0.00003225       0.00075734      -0.00445830
Al       5.72756493       0.00000000      14.67653718        4       0.00002976       0.00073509      -0.00442214
Al       8.59134739       0.00000000      14.67653718        4       0.00000747       0.00073487      -0.00441815
Al       1.43189123       2.48010836      14.67653718        4       0.00003479       0.00072015      -0.00452387
Al       4.29567370       2.48010836      14.67653718        4       0.00005793       0.00070945      -0.00461955
Al       7.15945616       2.48010836      14.67653718        4       0.00004817       0.00071016      -0.00452549
Al      10.02323862       2.48010836      14.67653718        4       0.00005245       0.00072335      -0.00448517
Al       2.86378246       4.96021673      14.67653718        4       0.00004228       0.00072093      -0.00456682
Al       5.72756493       4.96021673      14.67653718        4       0.00004649       0.00073904      -0.00472002
Al       8.59134739       4.96021673      14.67653718        4       0.00008655       0.00077113      -0.00451597
Al      11.45512986       4.96021673      14.67653718        4       0.00003251       0.00077198      -0.00445767
Al       4.29567370       7.44032509      14.67653718        4       0.00001835       0.00076408      -0.00449594
Al       7.15945616       7.44032509      14.67653718        4       0.00004075       0.00075432      -0.00450932
Al      10.02323862       7.44032509      14.67653718        4       0.00002018       0.00076103      -0.00442082
Al      12.88702109       7.44032509      14.67653718        4       0.00001884       0.00075652      -0.00440617
Al       1.43189123       0.82670279      17.01480577        3      -0.00000330       0.00082553      -0.00430252
Al       4.29567370       0.82670279      17.01480577        3      -0.00000911       0.00083962      -0.00429937
Al       7.15945616       0.82670279      17.01480577        3      -0.00002141       0.00082505      -0.00428066
Al      10.02323862       0.82670279      17.01480577        3      -0.00001668       0.00082099      -0.00431768
Al       2.86378246       3.30681115      17.01480577        3       0.00000654       0.00083202      -0.00433701
Al       5.72756493       3.30681115      17.01480577        3      -0.00001343       0.00083846      -0.00429987
Al       8.59134739       3.30681115      17.01480577        3      -0.00002107       0.00081480      -0.00428696
Al      11.45512986       3.30681115      17.01480577        3      -0.00002193       0.00083004      -0.00432342
Al       4.29567370       5.78691952      17.01480577        3      -0.00000952       0.00083317      -0.00431228
Al       7.15945616       5.78691952      17.01480577        3      -0.00002279       0.00082352      -0.00430229
Al      10.02323862       5.78691952      17.01480577        3      -0.00002126       0.00082796      -0.00432417
Al      12.88702109       5.78691952      17.01480577        3      -0.00000449       0.00084160      -0.00431331
Al       5.72756493       8.26702788      17.01480577        3      -0.00001284       0.00081208      -0.00429376
Al       8.59134739       8.26702788      17.01480577        3      -0.00002890       0.00083153      -0.00428571
Al      11.45512986       8.26702788      17.01480577        3      -0.00002376       0.00082729      -0.00426451
Al      14.31891232       8.26702788      17.01480577        3      -0.00000710       0.00083742      -0.00426363
Al      -0.00000000       1.65340558      19.35307436        2       0.00054152       0.00508080      -0.02820797
Al       2.86378246       1.65340558      19.35307436        2       0.00417844       0.00497120      -0.02617153
Al       5.72756493       1.65340558      19.35307436        2      -0.00199825       0.01169715      -0.03173061
Al       8.59134739       1.65340558      19.35307436        2       0.00210192       0.01344402      -0.03559653
Al       1.43189123       4.13351394      19.35307436        2      -0.00007440      -0.00591833      -0.03208500
Al       4.29567370       4.13351394      19.35307436        2       0.00238126      -0.00290750      -0.00907452
Al       7.15945616       4.13351394      19.35307436        2       0.00329407      -0.00022702      -0.02234813
Al      10.02323862       4.13351394      19.35307436        2      -0.00045272      -0.00560974      -0.01222556
Al       2.86378246       6.61362231      19.35307436        2       0.00546879      -0.00467789      -0.00933964
Al       5.72756493       6.61362231      19.35307436        2       0.00303478      -0.00650179      -0.00786037
Al       8.59134739       6.61362231      19.35307436        2      -0.00146897      -0.00220684      -0.01558820
Al      11.45512986       6.61362231      19.35307436        2      -0.00497428      -0.00448631      -0.01818498
Al       4.29567370       9.09373067      19.35307436        2       0.00371557       0.00263490      -0.01534199
Al       7.15945616       9.09373067      19.35307436        2       0.00062704       0.00052797      -0.00711665
Al      10.02323862       9.09373067      19.35307436        2      -0.00269022       0.00123415      -0.01535496
Al      12.88702109       9.09373067      19.35307436        2       0.00011860       0.00101540      -0.00519105
Al       0.00000000       0.00000000      21.69134295        1      -0.00997708      -0.00942099      -0.00289302
Al       2.86378246       0.00000000      21.69134295        1       0.00853459      -0.01155748      -0.00914819
Al       5.72756493       0.00000000      21.69134295        1      -0.01031955       0.02631371      -0.01985058
Al       8.59134739       0.00000000      21.69134295        1      -0.01135593       0.03286790      -0.02471554
Al       1.43189123       2.48010836      21.69134295        1       0.00567699       0.03404526      -0.00253291
Al       4.29567370       2.48010836      21.69134295        1       0.01813926      -0.00226363      -0.12194943
Al       7.15945616       2.48010836      21.69134295        1      -0.00788904      -0.04259920      -0.06770550
Al      10.02323862       2.48010836      21.69134295        1      -0.02833198       0.04481331       0.10332573
Al       2.86378246       4.96021673      21.69134295        1       0.03212955      -0.00763279      -0.03434755
Al       5.72756493       4.96021673      21.69134295        1      -0.01866990      -0.01565444      -0.33236587
Al       8.59134739       4.96021673      21.69134295        1       0.04766802       0.01073943      -0.19827032
Al      11.45512986       4.96021673      21.69134295        1      -0.01560815       0.00649579      -0.03040874
Al       4.29567370       7.44032509      21.69134295        1       0.02438124      -0.03456562       0.01329263
Al       7.15945616       7.44032509      21.69134295        1       0.00523442      -0.00266267      -0.08823154
Al      10.02323862       7.44032509      21.69134295        1      -0.03222600      -0.03598934      -0.01391144
Al      12.88702109       7.44032509      21.69134295        1      -0.00064798      -0.01042909       0.00252905
C        5.88473710       3.84392176      24.69945070        0      -0.56057096      -1.18862975       0.20290244
N        7.02818755       3.12284892      24.71637566        0      -1.57423997       0.75447357      -0.02840160
C        7.96982883       4.08953715      24.70333809        0       1.81860268      -0.65883881       0.29946661
S        9.57596418       3.78894324      24.71481357        0       1.69757688      -0.16266556      -0.28524348
N        7.43795350       5.32207539      24.67995703        0       1.62289834       1.85064578       0.28079382
N        6.12914641       5.16651130      24.67754182        0      -3.02365851       1.06482935       0.06784678
H        4.89409663       3.40904656      24.70310596        0      -0.23305312       0.03817393      -0.07822202
H        7.93886753       6.23853873      24.66606931        0      -0.59623319      -1.00620687      -0.05500897
H        5.42848686       5.94036497      24.66143443        0       0.78812140      -0.74029106      -0.07677334
