&FCI NORB=   5,NELEC=   2,MS2= 1,
  ORBSYM=1,1,1,1,1,
  ISYM=0,
 /
 4.3301512260590891E-01   1   1   1   1
 3.2370625619267639E-04   1   1   1   2
 1.7459763492136585E-02   1   1   1   3
-1.7065668038729734E-02   1   1   1   4
 2.3082768638344412E-02   1   1   1   5
 2.1374564695969345E-01   1   1   2   2
 4.7407610872407933E-02   1   1   2   3
 4.9485149827985589E-03   1   1   2   4
-1.1394228986783085E-02   1   1   2   5
 2.4700892061963087E-01   1   1   3   3
 7.9019063107496589E-03   1   1   3   4
-9.3770015353233701E-03   1   1   3   5
 1.7424079040832499E-01   1   1   4   4
-1.4644296251928292E-02   1   1   4   5
 1.8182473598251722E-01   1   1   5   5
 4.3027531906465475E-03   1   2   1   2
 2.4737954976726383E-03   1   2   1   3
-4.7359386009656875E-05   1   2   1   4
-4.0980261615310108E-05   1   2   1   5
 6.6980414132722377E-04   1   2   2   2
-2.7168764382144769E-03   1   2   2   3
-5.3143953864994125E-04   1   2   2   4
 3.7314426560961468E-05   1   2   2   5
 2.3048265368728008E-03   1   2   3   3
 1.0965355145918774E-03   1   2   3   4
-8.5321401242890234E-04   1   2   3   5
-3.1419866243583600E-03   1   2   4   4
 1.1135406222885092E-03   1   2   4   5
-4.2419345798028587E-03   1   2   5   5
 5.8756048098045650E-03   1   3   1   3
-1.0648462085179554E-03   1   3   1   4
 2.1111986971424088E-03   1   3   1   5
-7.1134346220600147E-03   1   3   2   2
 6.1408466395990189E-03   1   3   2   3
 1.1814029212627874E-03   1   3   2   4
-6.9124613508527528E-04   1   3   2   5
-7.2442321826103858E-03   1   3   3   3
-2.6118835113758139E-04   1   3   3   4
-4.1227449327542272E-05   1   3   3   5
-5.0597627799641512E-03   1   3   4   4
 7.1765714419585026E-04   1   3   4   5
-6.0638904583747624E-03   1   3   5   5
 4.3823447669342486E-03   1   4   1   4
-2.5206561611567160E-03   1   4   1   5
 3.0346312379864980E-03   1   4   2   2
-2.5888958597899028E-03   1   4   2   3
-4.0779518994812192E-04   1   4   2   4
 1.0981372091993819E-03   1   4   2   5
-1.0588958404120609E-04   1   4   3   3
-1.7142860089955465E-03   1   4   3   4
 1.2015902809725761E-03   1   4   3   5
 1.1267060030032113E-02   1   4   4   4
 2.1714220720884213E-04   1   4   4   5
 7.8794405990623463E-03   1   4   5   5
 4.7864970885082752E-03   1   5   1   5
-2.8306936166838355E-03   1   5   2   2
 3.3944797136438677E-03   1   5   2   3
 1.0049836965099418E-03   1   5   2   4
-1.1664817320778164E-03   1   5   2   5
 2.7443793657509286E-04   1   5   3   3
 1.5419947210885431E-03   1   5   3   4
-2.3663153156354734E-03   1   5   3   5
-6.2679089135798359E-03   1   5   4   4
 2.2184620168613388E-03   1   5   4   5
-1.1824214787239896E-02   1   5   5   5
 3.2049461990369227E-01   2   2   2   2
-3.0356058429182629E-02   2   2   2   3
-1.0153982384976211E-02   2   2   2   4
-2.6197239414976047E-03   2   2   2   5
 2.9601589682421070E-01   2   2   3   3
 5.2835335214960651E-03   2   2   3   4
-6.7995968347289220E-03   2   2   3   5
 2.5092444813025483E-01   2   2   4   4
-1.0728184002531818E-02   2   2   4   5
 2.4023799775966009E-01   2   2   5   5
 6.1148503605201535E-02   2   3   2   3
 9.2916058497312104E-03   2   3   2   4
-7.6079462313473527E-03   2   3   2   5
 2.5947499387717239E-03   2   3   3   3
-2.5534946085859038E-03   2   3   3   4
-3.0827325155146214E-04   2   3   3   5
-1.1916030916959327E-02   2   3   4   4
-8.6037997904862048E-03   2   3   4   5
 6.4950879988637574E-03   2   3   5   5
 1.0012371066763741E-02   2   4   2   4
-1.1967496281117867E-03   2   4   2   5
-6.5268388927297843E-03   2   4   3   3
-1.7139085759830907E-03   2   4   3   4
-1.1402058877250745E-03   2   4   3   5
 6.0799216622579519E-03   2   4   4   4
 3.6980168902501936E-03   2   4   4   5
 3.0390898601534142E-03   2   4   5   5
 7.0220486312376111E-03   2   5   2   5
-7.0271192387355063E-03   2   5   3   3
-2.0694232234224801E-03   2   5   3   4
 2.1591468479031555E-03   2   5   3   5
 6.3906837858820542E-03   2   5   4   4
 5.7333056968698311E-03   2   5   4   5
 2.9268260951389167E-04   2   5   5   5
 3.5655581749758047E-01   3   3   3   3
 1.2794339526208103E-02   3   3   3   4
-1.7003638637214834E-02   3   3   3   5
 2.1514964942107906E-01   3   3   4   4
-1.6532339603392808E-02   3   3   4   5
 2.2472287006474195E-01   3   3   5   5
 6.2441546045427683E-03   3   4   3   4
-4.0198627100695005E-03   3   4   3   5
-1.3636983257314644E-02   3   4   4   4
-9.8750904291169906E-04   3   4   4   5
-1.1884363445257626E-02   3   4   5   5
 8.5014164557113674E-03   3   5   3   5
 1.6945491066527308E-03   3   5   4   4
-5.6369791853757237E-03   3   5   4   5
 1.6001146704286030E-02   3   5   5   5
 3.3554317941937201E-01   4   4   4   4
 1.1903125595021533E-02   4   4   4   5
 2.6450237144003019E-01   4   4   5   5
 2.6859151510944784E-02   4   5   4   5
-2.7359401927665766E-02   4   5   5   5
 3.1998428938049034E-01   5   5   5   5
-6.0258513411393833E-01   1   1   0   0
-3.2363253129300245E-04   1   2   0   0
-1.7459290521330252E-02   1   3   0   0
 1.7065188435102324E-02   1   4   0   0
-2.3082149719456827E-02   1   5   0   0
-5.1781667466500192E-01   2   2   0   0
-9.2339270355892317E-02   2   3   0   0
-9.9439675709460090E-03   2   4   0   0
 2.2747201896852986E-02   2   5   0   0
-5.0320207444397380E-01   3   3   0   0
-1.6868437373611746E-02   3   4   0   0
 2.0864705351644624E-02   3   5   0   0
-3.2701210371260275E-01   4   4   0   0
 2.6768029305468653E-02   4   5   0   0
-3.2286655212534582E-01   5   5   0   0
-5.2376421864417750E+01   0   0   0   0
