9
Lattice="11.45512985522207 0.0 0.0 5.727564927611035 9.92043345827187 0.0 0.0 0.0 31.691342951089922" Properties=species:S:1:pos:R:3:tags:I:1:forces:R:3 energy=-424.34423828125 free_energy=-424.34423828125 stress="0.005457169841974974 1.4421530067920685e-06 -2.5704503059387207e-07 1.4421530067920685e-06 0.005516375880688429 9.471550583839417e-07 -2.5704503059387207e-07 9.471550583839417e-07 0.005574996583163738" pbc="T T F"
C        6.08832191       3.99029841      24.54080894        0      -0.00512187       0.00350709       0.00354330
N        6.92784581       2.96179561      24.43491801        0      -0.00163057       0.00283017       0.00338598
C        8.18572667       3.46849323      24.55907599        0       0.00582364      -0.00434653       0.00225752
S        9.65672850       2.63102166      24.33373334        0       0.00216194      -0.00388712      -0.00507674
N        8.10925287       4.83354057      24.70159428        0       0.00159465       0.00457727      -0.00078551
N        6.74485083       5.17822718      24.82716980        0       0.00483459       0.00446838      -0.00143240
H        5.01244982       3.94695084      24.39148132        0      -0.00132753       0.00346968       0.00219726
H        8.82011925       5.41228475      25.14144604        0       0.00375893       0.00115839      -0.00103567
H        6.47090329       5.99613325      24.25783522        0       0.00124771       0.00723536      -0.00003056
