&FCI NORB=   5,NELEC=   2,MS2= 1,
  ORBSYM=1,1,1,1,1,
  ISYM=0,
 /
 7.8658806379947113E-03   1   1   1   1
 2.2449802836981602E-03   1   1   1   2
-2.7893956502239581E-10   1   1   1   4
 9.9013631017593926E-06   1   1   1   5
-4.6251309562491636E-04   1   1   2   2
 5.5662627171338894E-10   1   1   2   4
 8.7744340992832507E-06   1   1   2   5
 6.1833092446136172E-03   1   1   3   3
 1.3897622053618921E-10   1   1   3   5
 6.1833090660853946E-03   1   1   4   4
-9.3074249603793970E-10   1   1   4   5
 6.0980597347336865E-03   1   1   5   5
 6.4088507343341571E-04   1   2   1   2
 8.5762828667833418E-06   1   2   1   5
-1.3159274259817288E-04   1   2   2   2
 1.3847723570039813E-10   1   2   2   4
 5.5327568673062432E-07   1   2   2   5
 1.7647183594347070E-03   1   2   3   3
 1.7647183058437377E-03   1   2   4   4
-2.6771597631866770E-10   1   2   4   5
 1.7393802357744763E-03   1   2   5   5
 1.5649082504803273E-03   1   3   1   3
-5.4708569728429573E-04   1   3   2   3
 1.5395085293384847E-10   1   3   3   3
-2.9429465250386047E-10   1   3   3   4
 1.8656606447499361E-05   1   3   3   5
 1.2879767803501696E-10   1   3   4   4
 1.3915864397243139E-10   1   3   4   5
-1.6275129421233769E-10   1   3   5   5
 1.5649081427994583E-03   1   4   1   4
 1.4691367647781751E-10   1   4   1   5
-5.4708576130430508E-04   1   4   2   4
-4.6472201791789202E-10   1   4   2   5
-6.4685274492456632E-10   1   4   3   3
 1.3944373335365237E-10   1   4   3   5
-1.5487867941268996E-09   1   4   4   4
 1.8655457775445091E-05   1   4   4   5
 1.3033941402302435E-09   1   4   5   5
 1.5425323522697291E-03   1   5   1   5
-5.4521930226443799E-06   1   5   2   2
-5.0265707472105226E-10   1   5   2   4
-5.6888504073457163E-04   1   5   2   5
 2.4163549482165385E-05   1   5   3   3
 1.3726750717705648E-10   1   5   3   4
-1.7954618472320813E-10   1   5   3   5
 2.4162402581578869E-05   1   5   4   4
 1.4127506836906709E-09   1   5   4   5
-6.2115357510386594E-05   1   5   5   5
 3.0659520314368040E-05   2   2   2   2
 1.8863316854667129E-06   2   2   2   5
-3.6837623359824926E-04   2   2   3   3
-3.6837621318140668E-04   2   2   4   4
 1.0388373393584874E-10   2   2   4   5
-3.6531887789960777E-04   2   2   5   5
 2.3104485622783537E-04   2   3   2   3
-1.2971749748565825E-10   2   3   3   3
-5.8323471508572738E-06   2   3   3   5
-1.4064361991922378E-10   2   3   4   4
 1.0332717830224131E-10   2   3   5   5
 2.3104492427048872E-04   2   4   2   4
 4.0949666869890832E-10   2   4   2   5
 9.0289738245664594E-10   2   4   3   3
 1.2213830801778569E-09   2   4   4   4
-5.8319010489142353E-06   2   4   4   5
-7.4990926719775176E-10   2   4   5   5
 2.5165527512541403E-04   2   5   2   5
-3.8557094332757770E-06   2   5   3   3
-3.8552411122467382E-06   2   5   4   4
-5.5514882225720860E-10   2   5   4   5
 4.0505523655023267E-05   2   5   5   5
 5.0198935949419239E-03   3   3   3   3
-3.6666149354351739E-05   3   3   3   4
 4.8598017463681344E-03   3   3   4   4
-4.4755442083429272E-10   3   3   4   5
 4.6649129300309327E-03   3   3   5   5
 2.0636896526954448E-04   3   4   3   4
 3.3491894101024990E-10   3   4   3   5
 3.6666287059846635E-05   3   4   4   4
 7.1507896360453206E-05   3   5   3   5
 1.8351199920413328E-10   3   5   4   4
 1.5896141452703119E-10   3   5   5   5
 5.0198932953117977E-03   4   4   4   4
-4.9265264307277179E-10   4   4   4   5
 4.6649128340386335E-03   4   4   5   5
 7.1507865663734358E-05   4   5   4   5
-1.3155041793454729E-09   4   5   5   5
 5.0200978624348270E-03   5   5   5   5
 2.5560282603995610E-01   1   1   0   0
-2.2442696487087505E-03   1   2   0   0
-4.7198929601218825E-10   1   3   0   0
-4.1834248122197232E-10   1   4   0   0
-9.9479274443886688E-06   1   5   0   0
 4.6879928585340896E-01   2   2   0   0
-5.0451938075353286E-10   2   3   0   0
-1.8575741862001271E-09   2   4   0   0
-8.9973476751105527E-06   2   5   0   0
 5.1503383012279880E-01   3   3   0   0
 1.3029307713424150E-12   3   4   0   0
-1.7484014621911472E-10   3   5   0   0
 5.1503383925007784E-01   4   4   0   0
 2.1602591589085556E-09   4   5   0   0
 5.1663352731359291E-01   5   5   0   0
-2.5200193895118905E+03   0   0   0   0
