&FCI NORB=   5,NELEC=   2,MS2= 1,
  ORBSYM=1,1,1,1,1,
  ISYM=0,
 /
 4.6359834296339120E-01   1   1   1   1
 7.5303761115893837E-04   1   1   1   2
 3.7461990868139076E-03   1   1   1   3
-2.4486262563275133E-02   1   1   1   4
-4.5552626946609069E-03   1   1   1   5
 3.0700456941905085E-01   1   1   2   2
 6.9927696852758181E-03   1   1   2   3
-1.1477227405325446E-02   1   1   2   4
 9.3367581571013867E-04   1   1   2   5
 3.6302972138440165E-01   1   1   3   3
 4.3447844661874081E-03   1   1   3   4
 4.5351477414597788E-03   1   1   3   5
 2.0960266667251956E-01   1   1   4   4
-1.0800884001585881E-02   1   1   4   5
 2.5770765422298364E-01   1   1   5   5
 8.4344972187588695E-03   1   2   1   2
 2.0102412019876521E-03   1   2   1   3
-8.3145476652758514E-04   1   2   1   4
 4.2486929766666841E-04   1   2   1   5
 1.2545665036601309E-03   1   2   2   2
-3.3302056462887215E-03   1   2   2   3
 1.3032785750555084E-03   1   2   2   4
-4.1689183850423615E-03   1   2   2   5
 2.1501898086274577E-04   1   2   3   3
-2.6351643817241761E-04   1   2   3   4
-1.1046812057368806E-04   1   2   3   5
-1.7745770568850707E-03   1   2   4   4
-3.2416398487360545E-04   1   2   4   5
-1.3123484693202637E-03   1   2   5   5
 1.6623668781303072E-02   1   3   1   3
-9.8808782128435347E-05   1   3   1   4
 6.3199932940961336E-04   1   3   1   5
-1.5837767609294439E-03   1   3   2   2
 1.4493795887758041E-03   1   3   2   3
-6.3209954864703113E-04   1   3   2   4
-2.1612396788303504E-04   1   3   2   5
 3.4814735500541013E-03   1   3   3   3
-1.0513018192312821E-03   1   3   3   4
-2.8695279320672474E-03   1   3   3   5
-1.3029624089531530E-03   1   3   4   4
 3.3307349842888738E-04   1   3   4   5
-2.1711095842990606E-03   1   3   5   5
 5.3965057083460556E-03   1   4   1   4
-8.8969318749257268E-04   1   4   1   5
-2.1142265380410096E-03   1   4   2   2
-1.5168044941475365E-03   1   4   2   3
 9.7140885150526863E-04   1   4   2   4
 8.6010873856089717E-04   1   4   2   5
-1.5100560252981112E-02   1   4   3   3
-2.5393677073664119E-04   1   4   3   4
-4.7786485183302642E-04   1   4   3   5
 1.2366411483293982E-02   1   4   4   4
 3.6029023663825671E-04   1   4   4   5
-5.9816709232576957E-04   1   4   5   5
 6.7090530190489928E-03   1   5   1   5
-4.0626581308561395E-03   1   5   2   2
-1.9094096331473292E-03   1   5   2   3
 3.1813529257844800E-04   1   5   2   4
-3.2985304577335219E-04   1   5   2   5
-2.7230168109848301E-03   1   5   3   3
 2.6659122080695849E-04   1   5   3   4
-5.8147973944218466E-04   1   5   3   5
-3.2384190261885827E-03   1   5   4   4
-3.0638641142382558E-04   1   5   4   5
-9.1730381755382863E-04   1   5   5   5
 3.6450107789109354E-01   2   2   2   2
 7.3487391857866326E-03   2   2   2   3
-8.2876308405925581E-03   2   2   2   4
-2.3317824881437248E-03   2   2   2   5
 3.1243736805988492E-01   2   2   3   3
 1.2877974469276479E-03   2   2   3   4
 9.7747854566531886E-04   2   2   3   5
 2.6940474202962189E-01   2   2   4   4
-8.6022598107268755E-03   2   2   4   5
 2.9935228346145643E-01   2   2   5   5
 5.8262335989920928E-02   2   3   2   3
-7.0511761799101221E-05   2   3   2   4
 2.9008247431208745E-03   2   3   2   5
-8.8875205597740096E-03   2   3   3   3
-6.2657481936675774E-03   2   3   3   4
-1.9462268659477602E-04   2   3   3   5
 4.0838040770258821E-03   2   3   4   4
 1.2346385874850634E-02   2   3   4   5
 1.4454749390979391E-02   2   3   5   5
 1.1344023635101808E-02   2   4   2   4
-2.1647704923934601E-03   2   4   2   5
-1.2260558989741613E-02   2   4   3   3
-8.4198559350934449E-05   2   4   3   4
 6.6086888497348751E-04   2   4   3   5
 1.5928820110902322E-02   2   4   4   4
 1.9712162344366442E-03   2   4   4   5
-9.3193524219965310E-03   2   4   5   5
 1.1160916427026222E-02   2   5   2   5
 1.4833126760111837E-04   2   5   3   3
 4.9116714397729356E-04   2   5   3   4
 1.1696415789896920E-03   2   5   3   5
 4.8988452359225556E-03   2   5   4   4
-4.0014772795273444E-04   2   5   4   5
-7.0702859741855512E-04   2   5   5   5
 3.8675305932197157E-01   3   3   3   3
 4.4051596086816004E-03   3   3   3   4
 3.3617210440389780E-03   3   3   3   5
 2.0531878187266686E-01   3   3   4   4
-8.2920068548588723E-03   3   3   4   5
 2.5607341377353443E-01   3   3   5   5
 2.3631813883392980E-03   3   4   3   4
-3.2100684531924519E-04   3   4   3   5
-1.3316305211857338E-03   3   4   4   4
-1.6483244249030444E-03   3   4   4   5
-1.6157277336009972E-03   3   4   5   5
 5.2738726535354477E-03   3   5   3   5
 4.5809937244519432E-04   3   5   4   4
-5.2343463658365572E-04   3   5   4   5
-1.5473022644123210E-03   3   5   5   5
 3.8356145165717859E-01   4   4   4   4
-4.4187931842826055E-03   4   4   4   5
 2.3897319716265228E-01   4   4   5   5
 9.5717419487362093E-03   4   5   4   5
 1.8620679403182235E-04   4   5   5   5
 3.2687239668103674E-01   5   5   5   5
-9.0167102986692915E-01   1   1   0   0
 2.6581445030013270E-04   1   2   0   0
-2.6114565983970809E-03   1   3   0   0
 2.8819735996738566E-02   1   4   0   0
 5.2661652048999691E-03   1   5   0   0
-4.8940921593691078E-01   2   2   0   0
-1.1511851996012160E-02   2   3   0   0
 1.7932930282904033E-02   2   4   0   0
-2.4815830334209000E-03   2   5   0   0
-6.9003119276424940E-01   3   3   0   0
-8.5933278414459836E-03   3   4   0   0
-7.2728107940809895E-03   3   5   0   0
-3.6856524554307812E-01   4   4   0   0
 1.9966893976297972E-02   4   5   0   0
-4.0341399058281235E-01   5   5   0   0
-4.1812682125566610E+01   0   0   0   0
